  48  48   0   0
  0.3002598E+02  0.1957216E-08  0.7160604E-09  0.1037701E-08  0.5000000E-15
  1.000000000000000E-004
  CAR 
 MoTe2                                   
     13.77804091    -42.23757841  301      3.13275398      1.00000000
    -42.238  0.0000E+00  0.0000E+00
    -42.051  0.0000E+00  0.0000E+00
    -41.864  0.0000E+00  0.0000E+00
    -41.677  0.0000E+00  0.0000E+00
    -41.491  0.0000E+00  0.0000E+00
    -41.304  0.0000E+00  0.0000E+00
    -41.117  0.0000E+00  0.0000E+00
    -40.931  0.0000E+00  0.0000E+00
    -40.744  0.0000E+00  0.0000E+00
    -40.557  0.0000E+00  0.0000E+00
    -40.370  0.0000E+00  0.0000E+00
    -40.184  0.0000E+00  0.0000E+00
    -39.997  0.0000E+00  0.0000E+00
    -39.810  0.2125E-02  0.3968E-03
    -39.624  0.1648E+02  0.3078E+01
    -39.437  0.3293E+02  0.9227E+01
    -39.250  0.4715E+02  0.1803E+02
    -39.063  0.1220E+02  0.2031E+02
    -38.877  0.1977E+02  0.2400E+02
    -38.690  0.3196E-02  0.2400E+02
    -38.503  0.2344E-02  0.2400E+02
    -38.316  0.3148E+02  0.2988E+02
    -38.130  0.1149E+02  0.3202E+02
    -37.943  0.2123E+02  0.3599E+02
    -37.756  0.6080E-01  0.3600E+02
    -37.570  0.0000E+00  0.3600E+02
    -37.383  0.0000E+00  0.3600E+02
    -37.196  0.0000E+00  0.3600E+02
    -37.009  0.0000E+00  0.3600E+02
    -36.823  0.0000E+00  0.3600E+02
    -36.636  0.0000E+00  0.3600E+02
    -36.449  0.0000E+00  0.3600E+02
    -36.263  0.0000E+00  0.3600E+02
    -36.076  0.0000E+00  0.3600E+02
    -35.889  0.0000E+00  0.3600E+02
    -35.702  0.0000E+00  0.3600E+02
    -35.516  0.0000E+00  0.3600E+02
    -35.329  0.0000E+00  0.3600E+02
    -35.142  0.0000E+00  0.3600E+02
    -34.956  0.0000E+00  0.3600E+02
    -34.769  0.0000E+00  0.3600E+02
    -34.582  0.0000E+00  0.3600E+02
    -34.395  0.0000E+00  0.3600E+02
    -34.209  0.0000E+00  0.3600E+02
    -34.022  0.0000E+00  0.3600E+02
    -33.835  0.0000E+00  0.3600E+02
    -33.649  0.0000E+00  0.3600E+02
    -33.462  0.0000E+00  0.3600E+02
    -33.275  0.0000E+00  0.3600E+02
    -33.088  0.0000E+00  0.3600E+02
    -32.902  0.0000E+00  0.3600E+02
    -32.715  0.0000E+00  0.3600E+02
    -32.528  0.0000E+00  0.3600E+02
    -32.341  0.0000E+00  0.3600E+02
    -32.155  0.0000E+00  0.3600E+02
    -31.968  0.0000E+00  0.3600E+02
    -31.781  0.0000E+00  0.3600E+02
    -31.595  0.0000E+00  0.3600E+02
    -31.408  0.0000E+00  0.3600E+02
    -31.221  0.0000E+00  0.3600E+02
    -31.034  0.0000E+00  0.3600E+02
    -30.848  0.0000E+00  0.3600E+02
    -30.661  0.0000E+00  0.3600E+02
    -30.474  0.0000E+00  0.3600E+02
    -30.288  0.0000E+00  0.3600E+02
    -30.101  0.0000E+00  0.3600E+02
    -29.914  0.0000E+00  0.3600E+02
    -29.727  0.0000E+00  0.3600E+02
    -29.541  0.0000E+00  0.3600E+02
    -29.354  0.0000E+00  0.3600E+02
    -29.167  0.0000E+00  0.3600E+02
    -28.981  0.0000E+00  0.3600E+02
    -28.794  0.0000E+00  0.3600E+02
    -28.607  0.0000E+00  0.3600E+02
    -28.420  0.0000E+00  0.3600E+02
    -28.234  0.0000E+00  0.3600E+02
    -28.047  0.0000E+00  0.3600E+02
    -27.860  0.0000E+00  0.3600E+02
    -27.674  0.0000E+00  0.3600E+02
    -27.487  0.0000E+00  0.3600E+02
    -27.300  0.0000E+00  0.3600E+02
    -27.113  0.0000E+00  0.3600E+02
    -26.927  0.0000E+00  0.3600E+02
    -26.740  0.5178E-05  0.3600E+02
    -26.553  0.1274E+02  0.3838E+02
    -26.366  0.2312E+02  0.4270E+02
    -26.180  0.2792E+02  0.4791E+02
    -25.993  0.4855E+00  0.4800E+02
    -25.806  0.0000E+00  0.4800E+02
    -25.620  0.6481E-10  0.4800E+02
    -25.433  0.5712E+00  0.4811E+02
    -25.246  0.4091E+02  0.5575E+02
    -25.059  0.3033E+02  0.6141E+02
    -24.873  0.3671E+02  0.6826E+02
    -24.686  0.2001E+02  0.7200E+02
    -24.499  0.4525E-02  0.7200E+02
    -24.313  0.0000E+00  0.7200E+02
    -24.126  0.0000E+00  0.7200E+02
    -23.939  0.0000E+00  0.7200E+02
    -23.752  0.0000E+00  0.7200E+02
    -23.566  0.5995E-03  0.7200E+02
    -23.379  0.1916E+02  0.7558E+02
    -23.192  0.2258E+01  0.7600E+02
    -23.006  0.0000E+00  0.7600E+02
    -22.819  0.0000E+00  0.7600E+02
    -22.632  0.0000E+00  0.7600E+02
    -22.445  0.0000E+00  0.7600E+02
    -22.259  0.0000E+00  0.7600E+02
    -22.072  0.0000E+00  0.7600E+02
    -21.885  0.0000E+00  0.7600E+02
    -21.699  0.0000E+00  0.7600E+02
    -21.512  0.0000E+00  0.7600E+02
    -21.325  0.0000E+00  0.7600E+02
    -21.138  0.0000E+00  0.7600E+02
    -20.952  0.1962E-08  0.7600E+02
    -20.765  0.1011E+01  0.7619E+02
    -20.578  0.4346E+01  0.7700E+02
    -20.391  0.1023E+02  0.7891E+02
    -20.205  0.1507E+01  0.7919E+02
    -20.018  0.1678E+02  0.8233E+02
    -19.831  0.1228E+02  0.8462E+02
    -19.645  0.1334E+02  0.8711E+02
    -19.458  0.1715E+02  0.9031E+02
    -19.271  0.9045E+01  0.9200E+02
    -19.084  0.3497E-04  0.9200E+02
    -18.898  0.4944E+01  0.9292E+02
    -18.711  0.2200E+02  0.9703E+02
    -18.524  0.1523E+02  0.9988E+02
    -18.338  0.1573E+02  0.1028E+03
    -18.151  0.6355E+01  0.1040E+03
    -17.964  0.1131E-06  0.1040E+03
    -17.777  0.1041E-05  0.1040E+03
    -17.591  0.8212E+01  0.1055E+03
    -17.404  0.1321E+02  0.1080E+03
    -17.217  0.4255E-03  0.1080E+03
    -17.031  0.0000E+00  0.1080E+03
    -16.844  0.0000E+00  0.1080E+03
    -16.657  0.0000E+00  0.1080E+03
    -16.470  0.5367E-11  0.1080E+03
    -16.284  0.4856E+00  0.1081E+03
    -16.097  0.2092E+02  0.1120E+03
    -15.910  0.1846E-01  0.1120E+03
    -15.724  0.0000E+00  0.1120E+03
    -15.537  0.0000E+00  0.1120E+03
    -15.350  0.0000E+00  0.1120E+03
    -15.163  0.0000E+00  0.1120E+03
    -14.977  0.0000E+00  0.1120E+03
    -14.790  0.0000E+00  0.1120E+03
    -14.603  0.0000E+00  0.1120E+03
    -14.416  0.0000E+00  0.1120E+03
    -14.230  0.0000E+00  0.1120E+03
    -14.043  0.0000E+00  0.1120E+03
    -13.856  0.0000E+00  0.1120E+03
    -13.670  0.0000E+00  0.1120E+03
    -13.483  0.0000E+00  0.1120E+03
    -13.296  0.0000E+00  0.1120E+03
    -13.109  0.0000E+00  0.1120E+03
    -12.923  0.0000E+00  0.1120E+03
    -12.736  0.2392E-03  0.1120E+03
    -12.549  0.9196E+01  0.1137E+03
    -12.363  0.2192E+02  0.1178E+03
    -12.176  0.2672E+02  0.1228E+03
    -11.989  0.6434E+01  0.1240E+03
    -11.802  0.5278E+01  0.1250E+03
    -11.616  0.1897E+02  0.1285E+03
    -11.429  0.2349E+02  0.1329E+03
    -11.242  0.4577E+00  0.1330E+03
    -11.056  0.8938E+01  0.1347E+03
    -10.869  0.7601E+01  0.1361E+03
    -10.682  0.1529E+02  0.1389E+03
    -10.495  0.2255E+01  0.1394E+03
    -10.309  0.2142E+02  0.1434E+03
    -10.122  0.2082E+02  0.1473E+03
     -9.935  0.1344E+02  0.1498E+03
     -9.749  0.1177E+02  0.1520E+03
     -9.562  0.2293E+00  0.1520E+03
     -9.375  0.9746E+01  0.1538E+03
     -9.188  0.4171E+02  0.1616E+03
     -9.002  0.1281E+02  0.1640E+03
     -8.815  0.4993E+01  0.1649E+03
     -8.628  0.3232E+01  0.1655E+03
     -8.441  0.1334E+02  0.1680E+03
     -8.255  0.8949E+01  0.1697E+03
     -8.068  0.3167E+02  0.1756E+03
     -7.881  0.2089E+01  0.1760E+03
     -7.695  0.1192E+02  0.1782E+03
     -7.508  0.1645E+02  0.1813E+03
     -7.321  0.1119E+02  0.1834E+03
     -7.134  0.2072E+02  0.1873E+03
     -6.948  0.2317E+02  0.1916E+03
     -6.761  0.2379E+02  0.1960E+03
     -6.574  0.3922E+02  0.2033E+03
     -6.388  0.1963E+02  0.2070E+03
     -6.201  0.3733E+02  0.2140E+03
     -6.014  0.1349E+02  0.2165E+03
     -5.827  0.1973E+02  0.2202E+03
     -5.641  0.1099E+02  0.2222E+03
     -5.454  0.1018E+02  0.2241E+03
     -5.267  0.4896E+02  0.2333E+03
     -5.081  0.4953E+02  0.2425E+03
     -4.894  0.2768E+02  0.2477E+03
     -4.707  0.1649E+02  0.2508E+03
     -4.520  0.1327E+02  0.2533E+03
     -4.334  0.2444E+02  0.2578E+03
     -4.147  0.8285E+01  0.2594E+03
     -3.960  0.2192E+02  0.2635E+03
     -3.774  0.2964E+01  0.2640E+03
     -3.587  0.1398E+02  0.2666E+03
     -3.400  0.1118E+02  0.2687E+03
     -3.213  0.1108E+02  0.2708E+03
     -3.027  0.1001E+02  0.2726E+03
     -2.840  0.1360E+02  0.2752E+03
     -2.653  0.2040E+02  0.2790E+03
     -2.466  0.1163E+02  0.2812E+03
     -2.280  0.2198E+02  0.2853E+03
     -2.093  0.1193E+02  0.2875E+03
     -1.906  0.9544E+00  0.2877E+03
     -1.720  0.3470E+01  0.2883E+03
     -1.533  0.7637E+01  0.2897E+03
     -1.346  0.3846E+01  0.2905E+03
     -1.159  0.6803E+01  0.2917E+03
     -0.973  0.1279E+01  0.2920E+03
     -0.786  0.2316E+02  0.2963E+03
     -0.599  0.2306E+02  0.3006E+03
     -0.413  0.2729E+02  0.3057E+03
     -0.226  0.2385E+02  0.3102E+03
     -0.039  0.2915E+02  0.3156E+03
      0.148  0.1794E+02  0.3189E+03
      0.334  0.3805E+02  0.3261E+03
      0.521  0.2500E+02  0.3307E+03
      0.708  0.2181E+02  0.3348E+03
      0.894  0.2378E+02  0.3392E+03
      1.081  0.2189E+02  0.3433E+03
      1.268  0.3746E+02  0.3503E+03
      1.455  0.1741E+02  0.3536E+03
      1.641  0.1199E+02  0.3558E+03
      1.828  0.2037E+02  0.3596E+03
      2.015  0.2775E+02  0.3648E+03
      2.201  0.2547E+02  0.3695E+03
      2.388  0.2990E+02  0.3751E+03
      2.575  0.1702E+02  0.3783E+03
      2.762  0.2395E+02  0.3828E+03
      2.948  0.1515E+02  0.3856E+03
      3.135  0.1307E+02  0.3880E+03
      3.322  0.2645E+02  0.3930E+03
      3.509  0.1552E+02  0.3959E+03
      3.695  0.1700E+02  0.3991E+03
      3.882  0.9535E+01  0.4008E+03
      4.069  0.5229E+01  0.4018E+03
      4.255  0.1344E+02  0.4043E+03
      4.442  0.1804E+02  0.4077E+03
      4.629  0.2148E+01  0.4081E+03
      4.816  0.8998E+01  0.4098E+03
      5.002  0.3906E+01  0.4105E+03
      5.189  0.5805E+01  0.4116E+03
      5.376  0.7281E+01  0.4129E+03
      5.562  0.2073E+01  0.4133E+03
      5.749  0.3189E+01  0.4139E+03
      5.936  0.3048E+01  0.4145E+03
      6.123  0.2184E+01  0.4149E+03
      6.309  0.1358E+02  0.4174E+03
      6.496  0.2079E+02  0.4213E+03
      6.683  0.1142E+02  0.4235E+03
      6.869  0.6949E+01  0.4248E+03
      7.056  0.2094E+02  0.4287E+03
      7.243  0.2209E+02  0.4328E+03
      7.430  0.1143E+02  0.4349E+03
      7.616  0.5780E+01  0.4360E+03
      7.803  0.1662E+02  0.4391E+03
      7.990  0.1140E+02  0.4412E+03
      8.176  0.2897E+01  0.4418E+03
      8.363  0.3837E+01  0.4425E+03
      8.550  0.2410E+01  0.4429E+03
      8.737  0.4901E+01  0.4439E+03
      8.923  0.6700E+01  0.4451E+03
      9.110  0.1083E+02  0.4471E+03
      9.297  0.1020E+02  0.4490E+03
      9.484  0.7001E+01  0.4503E+03
      9.670  0.5835E+01  0.4514E+03
      9.857  0.3529E+01  0.4521E+03
     10.044  0.1301E+02  0.4545E+03
     10.230  0.1020E+02  0.4564E+03
     10.417  0.1277E+02  0.4588E+03
     10.604  0.8231E+01  0.4603E+03
     10.791  0.3644E+01  0.4610E+03
     10.977  0.1722E+01  0.4614E+03
     11.164  0.8995E+01  0.4630E+03
     11.351  0.5189E+01  0.4640E+03
     11.537  0.1582E-03  0.4640E+03
     11.724  0.0000E+00  0.4640E+03
     11.911  0.0000E+00  0.4640E+03
     12.098  0.0000E+00  0.4640E+03
     12.284  0.0000E+00  0.4640E+03
     12.471  0.0000E+00  0.4640E+03
     12.658  0.0000E+00  0.4640E+03
     12.844  0.0000E+00  0.4640E+03
     13.031  0.0000E+00  0.4640E+03
     13.218  0.0000E+00  0.4640E+03
     13.405  0.0000E+00  0.4640E+03
     13.591  0.0000E+00  0.4640E+03
     13.778  0.0000E+00  0.4640E+03
