       N       E                     dE             d eps       ncg     rms          ort
SDA:   1    -0.289593530153E+03   -0.28959E+03   -0.13431E+01  9512   0.336E+01 0.000E+00
DMP:   2    -0.290260997052E+03   -0.66747E+00   -0.65129E+00  9512   0.162E+01 0.210E-01
DMP:   3    -0.290653657685E+03   -0.39266E+00   -0.25502E+00  9512   0.510E+00 0.335E+00
DMP:   4    -0.290461585848E+03    0.19207E+00   -0.70527E+01  9512   0.182E+02-0.152E+01
DMP:   5    -0.285304861368E+03    0.51567E+01   -0.12184E+02  9512   0.332E+02-0.709E+01
DMP:   6    -0.275532700015E+03    0.97722E+01   -0.95643E+02  9512   0.300E+03-0.159E+03
DMP:   7    -0.276126404787E+03   -0.59370E+00   -0.27355E+02  9512   0.984E+02-0.786E+02
DMP:   8    -0.280728861527E+03   -0.46025E+01   -0.16806E+02  9512   0.629E+02-0.548E+02
DMP:   9    -0.281790077661E+03   -0.10612E+01   -0.14985E+02  9512   0.518E+02-0.376E+02
DMP:  10    -0.281075593995E+03    0.71448E+00   -0.16225E+02  9512   0.553E+02-0.386E+02
DMP:  11    -0.281161555641E+03   -0.85962E-01   -0.15738E+02  9512   0.548E+02-0.405E+02
DMP:  12    -0.281588992404E+03   -0.42744E+00   -0.14744E+02  9512   0.514E+02-0.382E+02
DMP:  13    -0.281742954956E+03   -0.15396E+00   -0.14372E+02  9512   0.498E+02-0.363E+02
DMP:  14    -0.281771198005E+03   -0.28243E-01   -0.14234E+02  9512   0.493E+02-0.358E+02
DMP:  15    -0.281844336559E+03   -0.73139E-01   -0.14015E+02  9512   0.486E+02-0.354E+02
DMP:  16    -0.281933276709E+03   -0.88940E-01   -0.13763E+02  9512   0.477E+02-0.348E+02
DMP:  17    -0.282003185370E+03   -0.69909E-01   -0.13575E+02  9512   0.470E+02-0.342E+02
DMP:  18    -0.282049543612E+03   -0.46358E-01   -0.13447E+02  9512   0.465E+02-0.338E+02
DMP:  19    -0.282087202371E+03   -0.37659E-01   -0.13337E+02  9512   0.461E+02-0.335E+02
DMP:  20    -0.282126135152E+03   -0.38933E-01   -0.13222E+02  9512   0.457E+02-0.332E+02
DMP:  21    -0.282162403947E+03   -0.36269E-01   -0.13125E+02  9512   0.454E+02-0.329E+02
DMP:  22    -0.282189341973E+03   -0.26938E-01   -0.13049E+02  9512   0.451E+02-0.327E+02
DMP:  23    -0.282212005769E+03   -0.22664E-01   -0.12984E+02  9512   0.449E+02-0.325E+02
DMP:  24    -0.282233163732E+03   -0.21158E-01   -0.12923E+02  9512   0.447E+02-0.324E+02
DMP:  25    -0.282252455292E+03   -0.19292E-01   -0.12870E+02  9512   0.445E+02-0.322E+02
DMP:  26    -0.282268186104E+03   -0.15731E-01   -0.12825E+02  9512   0.443E+02-0.321E+02
DMP:  27    -0.282281750883E+03   -0.13565E-01   -0.12787E+02  9512   0.442E+02-0.320E+02
DMP:  28    -0.282293983770E+03   -0.12233E-01   -0.12752E+02  9512   0.441E+02-0.319E+02
DMP:  29    -0.282304824485E+03   -0.10841E-01   -0.12722E+02  9512   0.440E+02-0.318E+02
DMP:  30    -0.282314286975E+03   -0.94625E-02   -0.12695E+02  9512   0.439E+02-0.318E+02
DMP:  31    -0.282322557219E+03   -0.82702E-02   -0.12671E+02  9512   0.438E+02-0.317E+02
DMP:  32    -0.282330161920E+03   -0.76047E-02   -0.12650E+02  9512   0.437E+02-0.316E+02
DMP:  33    -0.282336279790E+03   -0.61179E-02   -0.12633E+02  9512   0.436E+02-0.316E+02
DMP:  34    -0.282341901705E+03   -0.56219E-02   -0.12617E+02  9512   0.436E+02-0.315E+02
DMP:  35    -0.282346808454E+03   -0.49067E-02   -0.12603E+02  9512   0.435E+02-0.315E+02
DMP:  36    -0.282350957644E+03   -0.41492E-02   -0.12591E+02  9512   0.435E+02-0.315E+02
DMP:  37    -0.282354662620E+03   -0.37050E-02   -0.12580E+02  9512   0.435E+02-0.314E+02
DMP:  38    -0.282358046746E+03   -0.33841E-02   -0.12571E+02  9512   0.434E+02-0.314E+02
DMP:  39    -0.282360835904E+03   -0.27892E-02   -0.12563E+02  9512   0.434E+02-0.314E+02
DMP:  40    -0.282363459161E+03   -0.26233E-02   -0.12555E+02  9512   0.434E+02-0.314E+02
DMP:  41    -0.282365583404E+03   -0.21242E-02   -0.12549E+02  9512   0.433E+02-0.314E+02
DMP:  42    -0.282367726652E+03   -0.21432E-02   -0.12543E+02  9512   0.433E+02-0.313E+02
DMP:  43    -0.282369586833E+03   -0.18602E-02   -0.12538E+02  9512   0.433E+02-0.313E+02
DMP:  44    -0.282371440336E+03   -0.18535E-02   -0.12532E+02  9512   0.433E+02-0.313E+02
DMP:  45    -0.282372592278E+03   -0.11519E-02   -0.12528E+02  9512   0.433E+02-0.313E+02
DMP:  46    -0.282374584914E+03   -0.19926E-02   -0.12523E+02  9512   0.433E+02-0.313E+02
DMP:  47    -0.282375586572E+03   -0.10017E-02   -0.12520E+02  9512   0.432E+02-0.313E+02
DMP:  48    -0.282376693301E+03   -0.11067E-02   -0.12517E+02  9512   0.432E+02-0.313E+02
DMP:  49    -0.282377324894E+03   -0.63159E-03   -0.12515E+02  9512   0.432E+02-0.313E+02
DMP:  50    -0.282378379358E+03   -0.10545E-02   -0.12512E+02  9512   0.432E+02-0.313E+02
DMP:  51    -0.282379027408E+03   -0.64805E-03   -0.12510E+02  9512   0.432E+02-0.312E+02
DMP:  52    -0.282379769042E+03   -0.74163E-03   -0.12507E+02  9512   0.432E+02-0.312E+02
DMP:  53    -0.282380537249E+03   -0.76821E-03   -0.12506E+02  9512   0.432E+02-0.312E+02
DMP:  54    -0.282381187537E+03   -0.65029E-03   -0.12504E+02  9512   0.432E+02-0.312E+02
DMP:  55    -0.282381631422E+03   -0.44388E-03   -0.12502E+02  9512   0.432E+02-0.312E+02
DMP:  56    -0.282382285195E+03   -0.65377E-03   -0.12501E+02  9512   0.432E+02-0.312E+02
DMP:  57    -0.282382368135E+03   -0.82941E-04   -0.12500E+02  9512   0.432E+02-0.312E+02
DMP:  58    -0.282383193849E+03   -0.82571E-03   -0.12498E+02  9512   0.432E+02-0.312E+02
DMP:  59    -0.282383247592E+03   -0.53742E-04   -0.12497E+02  9512   0.432E+02-0.312E+02
DMP:  60    -0.282384199110E+03   -0.95152E-03   -0.12495E+02  9512   0.432E+02-0.312E+02
   1 F= -.28238420E+03 E0= -.28238420E+03  d E =-.266314E-09
