 vasp.5.4.4.18Apr17-6-g9f103f2a35 (build Aug 03 2021 20:12:39) complex          
  
 executed on             LinuxIFC date 2021.08.18  05:06:59
 running on   24 total cores
 distrk:  each k-point on   24 cores,    1 groups
 distr:  one band on NCORES_PER_BAND=   6 cores,    4 groups


--------------------------------------------------------------------------------------------------------


 INCAR:
 POTCAR:    PAW_PBE Cs_sv 08Apr2002               
 POTCAR:    PAW_PBE Nb_pv 08Apr2002               
 POTCAR:    PAW_PBE S 06Sep2000                   
 POTCAR:    PAW_PBE Br 06Sep2000                  
 POTCAR:    PAW_PBE Cs_sv 08Apr2002               
   VRHFIN =Cs: 5s5p6s                                                           
   LEXCH  = PE                                                                  
   EATOM  =   555.6835 eV,   40.8416 Ry                                         
                                                                                
   TITEL  = PAW_PBE Cs_sv 08Apr2002                                             
   LULTRA =        F    use ultrasoft PP ?                                      
   IUNSCR =        1    unscreen: 0-lin 1-nonlin 2-no                           
   RPACOR =    2.200    partial core radius                                     
   POMASS =  132.900; ZVAL   =    9.000    mass and valenz                      
   RCORE  =    2.500    outmost cutoff radius                                   
   RWIGS  =    2.500; RWIGS  =    1.323    wigner-seitz radius (au A)           
   ENMAX  =  220.318; ENMIN  =  165.238 eV                                      
   RCLOC  =    2.207    cutoff for local pot                                    
   LCOR   =        T    correct aug charges                                     
   LPAW   =        T    paw PP                                                  
   EAUG   =  407.933                                                            
   DEXC   =    0.000                                                            
   RMAX   =    2.554    core radius for proj-oper                               
   RAUG   =    1.300    factor for augmentation sphere                          
   RDEP   =    2.590    radius for radial grids                                 
   RDEPT  =    2.117    core radius for aug-charge                              
                                                                                
   Atomic configuration                                                         
   13 entries                                                                   
     n  l   j            E        occ.                                          
     1  0  0.50    -35790.1377   2.0000                                         
     2  0  0.50     -5613.6201   2.0000                                         
     2  1  1.50     -5035.0101   6.0000                                         
     3  0  0.50     -1167.0767   2.0000                                         
     3  1  1.50      -980.9754   6.0000                                         
     3  2  2.50      -708.0703  10.0000                                         
     4  0  0.50      -220.2386   2.0000                                         
     4  1  1.50      -160.7596   6.0000                                         
     4  2  2.50       -74.2354  10.0000                                         
     5  0  0.50       -26.7287   2.0000                                         
     6  0  0.50        -2.0862   1.0000                                         
     5  1  1.50       -13.5159   6.0000                                         
     5  2  2.50        -0.4136   0.0000                                         
   Description                                                                  
     l       E           TYP  RCUT    TYP  RCUT                                 
     0    -26.7287425     23  1.900                                             
     0     -2.0862306     23  1.900                                             
     1    -13.5158719     23  2.500                                             
     1     -2.7211652     23  2.500                                             
     2     -0.4136171     23  2.500                                             
  local pseudopotential read in
  partial core-charges read in
  partial kinetic energy density read in
  atomic valenz-charges read in
  non local Contribution for L=           0  read in
    real space projection operators read in
  non local Contribution for L=           0  read in
    real space projection operators read in
  non local Contribution for L=           1  read in
    real space projection operators read in
  non local Contribution for L=           1  read in
    real space projection operators read in
  non local Contribution for L=           2  read in
    real space projection operators read in
    PAW grid and wavefunctions read in
 
   number of l-projection  operators is LMAX  =           5
   number of lm-projection operators is LMMAX =          13
 
 POTCAR:    PAW_PBE Nb_pv 08Apr2002               
   VRHFIN =Nb: 4p5s4d                                                           
   LEXCH  = PE                                                                  
   EATOM  =  1043.3917 eV,   76.6871 Ry                                         
                                                                                
   TITEL  = PAW_PBE Nb_pv 08Apr2002                                             
   LULTRA =        F    use ultrasoft PP ?                                      
   IUNSCR =        1    unscreen: 0-lin 1-nonlin 2-no                           
   RPACOR =    2.200    partial core radius                                     
   POMASS =   92.000; ZVAL   =   11.000    mass and valenz                      
   RCORE  =    2.750    outmost cutoff radius                                   
   RWIGS  =    2.840; RWIGS  =    1.503    wigner-seitz radius (au A)           
   ENMAX  =  208.608; ENMIN  =  156.456 eV                                      
   RCLOC  =    2.201    cutoff for local pot                                    
   LCOR   =        T    correct aug charges                                     
   LPAW   =        T    paw PP                                                  
   EAUG   =  355.067                                                            
   DEXC   =    0.000                                                            
   RMAX   =    2.804    core radius for proj-oper                               
   RAUG   =    1.300    factor for augmentation sphere                          
   RDEP   =    2.776    radius for radial grids                                 
   RDEPT  =    2.198    core radius for aug-charge                              
                                                                                
   Atomic configuration                                                         
   11 entries                                                                   
     n  l   j            E        occ.                                          
     1  0  0.50    -18805.2456   2.0000                                         
     2  0  0.50     -2630.2869   2.0000                                         
     2  1  1.50     -2348.4045   6.0000                                         
     3  0  0.50      -438.8756   2.0000                                         
     3  1  1.50      -346.7587   6.0000                                         
     3  2  2.50      -196.2559  10.0000                                         
     4  0  0.50       -58.3859   2.0000                                         
     4  1  1.50       -34.5141   6.0000                                         
     4  2  2.50        -3.0408   4.0000                                         
     5  0  0.50        -3.9816   1.0000                                         
     4  3  2.50        -1.3606   0.0000                                         
   Description                                                                  
     l       E           TYP  RCUT    TYP  RCUT                                 
     1    -34.5140617     23  2.600                                             
     1     -1.3605826     23  2.600                                             
     2     -3.0407924     23  2.600                                             
     2     -1.4463597     23  2.600                                             
     0     -3.9816219     23  2.750                                             
     0     20.4087390     23  2.750                                             
  local pseudopotential read in
  partial core-charges read in
  partial kinetic energy density read in
  atomic valenz-charges read in
  non local Contribution for L=           1  read in
    real space projection operators read in
  non local Contribution for L=           1  read in
    real space projection operators read in
  non local Contribution for L=           2  read in
    real space projection operators read in
  non local Contribution for L=           2  read in
    real space projection operators read in
  non local Contribution for L=           0  read in
    real space projection operators read in
  non local Contribution for L=           0  read in
    real space projection operators read in
    PAW grid and wavefunctions read in
 
   number of l-projection  operators is LMAX  =           6
   number of lm-projection operators is LMMAX =          18
 
 POTCAR:    PAW_PBE S 06Sep2000                   
   VRHFIN =S : s2p4                                                             
   LEXCH  = PE                                                                  
   EATOM  =   276.8230 eV,   20.3459 Ry                                         
                                                                                
   TITEL  = PAW_PBE S 06Sep2000                                                 
   LULTRA =        F    use ultrasoft PP ?                                      
   IUNSCR =        1    unscreen: 0-lin 1-nonlin 2-no                           
   RPACOR =    1.500    partial core radius                                     
   POMASS =   32.066; ZVAL   =    6.000    mass and valenz                      
   RCORE  =    1.900    outmost cutoff radius                                   
   RWIGS  =    2.200; RWIGS  =    1.164    wigner-seitz radius (au A)           
   ENMAX  =  258.689; ENMIN  =  194.016 eV                                      
   ICORE  =        2    local potential                                         
   LCOR   =        T    correct aug charges                                     
   LPAW   =        T    paw PP                                                  
   EAUG   =  335.092                                                            
   DEXC   =    0.000                                                            
   RMAX   =    1.942    core radius for proj-oper                               
   RAUG   =    1.300    factor for augmentation sphere                          
   RDEP   =    1.954    radius for radial grids                                 
   RDEPT  =    1.744    core radius for aug-charge                              
                                                                                
   Atomic configuration                                                         
    6 entries                                                                   
     n  l   j            E        occ.                                          
     1  0  0.50     -2405.8406   2.0000                                         
     2  0  0.50      -211.7007   2.0000                                         
     2  1  1.50      -156.4958   6.0000                                         
     3  0  0.50       -17.2562   2.0000                                         
     3  1  0.50        -7.0085   4.0000                                         
     3  2  1.50        -6.8029   0.0000                                         
   Description                                                                  
     l       E           TYP  RCUT    TYP  RCUT                                 
     0    -17.2561641     23  1.900                                             
     0    -15.8743224     23  1.900                                             
     1     -7.0085400     23  1.900                                             
     1     -2.7779785     23  1.900                                             
     2     -6.8029130     23  1.900                                             
  local pseudopotential read in
  partial core-charges read in
  partial kinetic energy density read in
  atomic valenz-charges read in
  non local Contribution for L=           0  read in
    real space projection operators read in
  non local Contribution for L=           0  read in
    real space projection operators read in
  non local Contribution for L=           1  read in
    real space projection operators read in
  non local Contribution for L=           1  read in
    real space projection operators read in
    PAW grid and wavefunctions read in
 
   number of l-projection  operators is LMAX  =           4
   number of lm-projection operators is LMMAX =           8
 
 POTCAR:    PAW_PBE Br 06Sep2000                  
   VRHFIN =Br: s2p5                                                             
   LEXCH  = PE                                                                  
   EATOM  =   368.4488 eV,   27.0802 Ry                                         
                                                                                
   TITEL  = PAW_PBE Br 06Sep2000                                                
   LULTRA =        F    use ultrasoft PP ?                                      
   IUNSCR =        1    unscreen: 0-lin 1-nonlin 2-no                           
   RPACOR =    1.900    partial core radius                                     
   POMASS =   79.904; ZVAL   =    7.000    mass and valenz                      
   RCORE  =    2.100    outmost cutoff radius                                   
   RWIGS  =    2.200; RWIGS  =    1.164    wigner-seitz radius (au A)           
   ENMAX  =  216.285; ENMIN  =  162.214 eV                                      
   ICORE  =        3    local potential                                         
   LCOR   =        T    correct aug charges                                     
   LPAW   =        T    paw PP                                                  
   EAUG   =  503.852                                                            
   DEXC   =    0.000                                                            
   RMAX   =    2.139    core radius for proj-oper                               
   RAUG   =    1.300    factor for augmentation sphere                          
   RDEP   =    2.186    radius for radial grids                                 
   RDEPT  =    1.890    core radius for aug-charge                              
                                                                                
   Atomic configuration                                                         
   10 entries                                                                   
     n  l   j            E        occ.                                          
     1  0  0.50    -13316.2796   2.0000                                         
     2  0  0.50     -1732.8239   2.0000                                         
     2  1  1.50     -1528.2193   6.0000                                         
     3  0  0.50      -238.0460   2.0000                                         
     3  1  1.50      -173.4609   6.0000                                         
     3  2  2.50       -66.7132  10.0000                                         
     4  0  0.50       -20.1334   2.0000                                         
     4  1  0.50        -7.8591   5.0000                                         
     4  2  2.50        -8.1635   0.0000                                         
     4  3  2.50        -8.1635   0.0000                                         
   Description                                                                  
     l       E           TYP  RCUT    TYP  RCUT                                 
     0    -20.1333652     23  2.100                                             
     0    -21.4939478     23  2.100                                             
     1     -7.8591052     23  2.100                                             
     1     -3.1608434     23  2.100                                             
     2     -8.1634956     23  2.100                                             
     3     -1.3605826      7  2.100                                             
  local pseudopotential read in
  partial core-charges read in
  partial kinetic energy density read in
  atomic valenz-charges read in
  non local Contribution for L=           0  read in
    real space projection operators read in
  non local Contribution for L=           0  read in
    real space projection operators read in
  non local Contribution for L=           1  read in
    real space projection operators read in
  non local Contribution for L=           1  read in
    real space projection operators read in
  non local Contribution for L=           2  read in
    real space projection operators read in
    PAW grid and wavefunctions read in
 
   number of l-projection  operators is LMAX  =           5
   number of lm-projection operators is LMMAX =          13
 
 Optimization of the real space projectors (new method)

 maximal supplied QI-value         = 15.12
 optimisation between [QCUT,QGAM] = [ 11.34, 22.83] = [ 36.00,145.93] Ry 
 Optimized for a Real-space Cutoff    1.56 Angstroem

   l    n(q)    QCUT    max X(q) W(low)/X(q) W(high)/X(q)  e(spline) 
   0     11    11.338    25.322    0.46E-04    0.79E-04    0.58E-06
   0     11    11.338    99.187    0.44E-04    0.77E-04    0.56E-06
   1     10    11.338    11.761    0.13E-03    0.11E-03    0.42E-06
   1     10    11.338     8.275    0.14E-03    0.11E-03    0.46E-06
   2     10    11.338     3.829    0.13E-03    0.23E-03    0.18E-06
 Optimization of the real space projectors (new method)

 maximal supplied QI-value         = 13.61
 optimisation between [QCUT,QGAM] = [ 11.43, 22.86] = [ 36.58,146.31] Ry 
 Optimized for a Real-space Cutoff    1.56 Angstroem

   l    n(q)    QCUT    max X(q) W(low)/X(q) W(high)/X(q)  e(spline) 
   1     10    11.429     4.545    0.52E-04    0.55E-05    0.71E-07
   1     10    11.429     6.014    0.18E-03    0.77E-05    0.28E-06
   2     10    11.429   266.542    0.21E-03    0.47E-03    0.14E-05
   2     10    11.429   232.726    0.21E-03    0.47E-03    0.14E-05
   0     11    11.429    38.050    0.89E-04    0.28E-04    0.53E-06
   0     11    11.429    16.565    0.70E-04    0.24E-04    0.40E-06
 Optimization of the real space projectors (new method)

 maximal supplied QI-value         = 19.84
 optimisation between [QCUT,QGAM] = [ 11.31, 22.82] = [ 35.82,145.81] Ry 
 Optimized for a Real-space Cutoff    1.20 Angstroem

   l    n(q)    QCUT    max X(q) W(low)/X(q) W(high)/X(q)  e(spline) 
   0      8    11.310   187.594    0.16E-03    0.19E-03    0.53E-07
   0      8    11.310   164.243    0.16E-03    0.19E-03    0.53E-07
   1      8    11.310    67.533    0.18E-03    0.19E-03    0.92E-07
   1      8    11.310    50.729    0.18E-03    0.19E-03    0.90E-07
 Optimization of the real space projectors (new method)

 maximal supplied QI-value         = 17.95
 optimisation between [QCUT,QGAM] = [ 11.31, 22.80] = [ 35.82,145.56] Ry 
 Optimized for a Real-space Cutoff    1.31 Angstroem

   l    n(q)    QCUT    max X(q) W(low)/X(q) W(high)/X(q)  e(spline) 
   0      9    11.310   175.082    0.48E-04    0.59E-04    0.71E-07
   0      9    11.310   174.004    0.47E-04    0.57E-04    0.69E-07
   1      8    11.310    54.315    0.11E-03    0.13E-03    0.93E-07
   1      8    11.310    42.441    0.10E-03    0.13E-03    0.91E-07
   2      8    11.310     3.596    0.18E-04    0.69E-04    0.67E-07
  PAW_PBE Cs_sv 08Apr2002               :
 energy of atom  1       EATOM= -555.6835
 kinetic energy error for atom=    0.0019 (will be added to EATOM!!)
  PAW_PBE Nb_pv 08Apr2002               :
 energy of atom  2       EATOM=-1043.3917
 kinetic energy error for atom=    0.0013 (will be added to EATOM!!)
  PAW_PBE S 06Sep2000                   :
 energy of atom  3       EATOM= -276.8230
 kinetic energy error for atom=    0.0020 (will be added to EATOM!!)
  PAW_PBE Br 06Sep2000                  :
 energy of atom  4       EATOM= -368.4488
 kinetic energy error for atom=    0.0011 (will be added to EATOM!!)
 
 
 POSCAR: Cs4 Nb12 S4 Br28                        
  positions in direct lattice
  No initial velocities read in
 exchange correlation table for  LEXCH =        8
   RHO(1)=    0.500       N(1)  =     2000
   RHO(2)=  100.500       N(2)  =     4000
 


--------------------------------------------------------------------------------------------------------


 ion  position               nearest neighbor table
   1  0.405  0.769  0.885-
   2  0.095  0.269  0.885-
   3  0.905  0.731  0.115-
   4  0.595  0.231  0.115-
   5  0.828  0.135  0.579-  19 2.47  36 2.61  34 2.62  28 2.66  17 2.68  44 2.80  15 2.88  14 2.91
                             6 3.12
   6  0.672  0.037  0.579-  17 2.48  35 2.61  41 2.62  28 2.67  19 2.67  45 2.80   8 2.88  10 2.92
                             5 3.12
   7  0.172  0.463  0.421-  18 2.48  31 2.61  48 2.62  46 2.67  20 2.67  40 2.80  13 2.88  12 2.92
                            11 3.12
   8  0.672  0.635  0.579-  17 2.47  35 2.61  32 2.62  42 2.66  19 2.68  45 2.80   6 2.88  10 2.91
                            15 3.12
   9  0.330  0.213  0.175-  20 2.39  26 2.60  43 2.60  33 2.73  29 2.74  30 2.76  11 2.91  16 2.92

  10  0.670  0.787  0.825-  17 2.39  41 2.60  32 2.60  21 2.73  23 2.74  25 2.76   8 2.91   6 2.92

  11  0.328  0.365  0.421-  20 2.47  22 2.61  43 2.62  46 2.66  18 2.68  47 2.80  16 2.88   9 2.91
                             7 3.12
  12  0.170  0.713  0.175-  18 2.39  48 2.60  24 2.60  29 2.73  33 2.74  37 2.76  13 2.91   7 2.92

  13  0.172  0.865  0.421-  18 2.47  31 2.61  24 2.62  38 2.66  20 2.68  40 2.80   7 2.88  12 2.91
                            16 3.12
  14  0.830  0.287  0.825-  19 2.39  39 2.60  34 2.60  23 2.73  21 2.74  27 2.76   5 2.91  15 2.92

  15  0.828  0.537  0.579-  19 2.48  36 2.61  39 2.62  42 2.67  17 2.67  44 2.80   5 2.88  14 2.92
                             8 3.12
  16  0.328  0.963  0.421-  20 2.48  22 2.61  26 2.62  38 2.67  18 2.67  47 2.80  11 2.88   9 2.92
                            13 3.12
  17  0.762  0.817  0.673-  10 2.39   8 2.47   6 2.48  15 2.67   5 2.68
  18  0.262  0.683  0.327-  12 2.39  13 2.47   7 2.48  16 2.67  11 2.68
  19  0.738  0.317  0.673-  14 2.39   5 2.47  15 2.48   6 2.67   8 2.68
  20  0.238  0.183  0.327-   9 2.39  11 2.47  16 2.48   7 2.67  13 2.68
  21  0.750  0.011  0.956-  10 2.73  14 2.74
  22  0.414  0.138  0.555-  11 2.61  16 2.61
  23  0.750  0.511  0.956-  14 2.73  10 2.74
  24  0.079  0.949  0.241-  12 2.60  13 2.62
  25  0.599  0.741  0.057-  10 2.76
  26  0.420  0.950  0.239-   9 2.60  16 2.62
  27  0.901  0.241  0.057-  14 2.76
  28  0.750  0.125  0.369-   5 2.66   6 2.67
  29  0.250  0.489  0.044-  12 2.73   9 2.74
  30  0.401  0.259  0.943-   9 2.76
  31  0.086  0.638  0.555-  13 2.61   7 2.61
  32  0.579  0.551  0.759-  10 2.60   8 2.62
  33  0.250  0.989  0.044-   9 2.73  12 2.74
  34  0.921  0.051  0.759-  14 2.60   5 2.62
  35  0.586  0.862  0.445-   8 2.61   6 2.61
  36  0.914  0.362  0.445-   5 2.61  15 2.61
  37  0.099  0.759  0.943-  12 2.76
  38  0.250  0.875  0.631-  13 2.66  16 2.67
  39  0.920  0.550  0.761-  14 2.60  15 2.62
  40  0.101  0.143  0.534-   7 2.80  13 2.80
  41  0.580  0.050  0.761-  10 2.60   6 2.62
  42  0.750  0.625  0.369-   8 2.66  15 2.67
  43  0.421  0.449  0.241-   9 2.60  11 2.62
  44  0.899  0.857  0.466-  15 2.80   5 2.80
  45  0.601  0.357  0.466-   6 2.80   8 2.80
  46  0.250  0.375  0.631-  11 2.66   7 2.67
  47  0.399  0.643  0.534-  16 2.80  11 2.80
  48  0.080  0.450  0.239-  12 2.60   7 2.62
 
  LATTYP: Found a simple monoclinic cell.
 ALAT       =    13.3731005516
 B/A-ratio  =     1.4635471073
 C/A-ratio  =     1.4040276409
 COS(beta)  =    -0.9560312962
  
  Lattice vectors:
  
 A1 = (   0.0000000000,  -8.5489802464, -10.2837130993)
 A2 = ( -19.5721626282,   0.0000000000,   0.0000000000)
 A3 = (   0.0000000000,  15.7095842465,  10.2837130993)


Analysis of symmetry for initial positions (statically):
=====================================================================
 Subroutine PRICEL returns:
 Original cell was already a primitive cell.
 

 Routine SETGRP: Setting up the symmetry group for a 
 simple monoclinic supercell.


 Subroutine GETGRP returns: Found  4 space group operations
 (whereof  2 operations were pure point group operations)
 out of a pool of  4 trial point group operations.


The static configuration has the point symmetry S_2 .
 The point group associated with its full space group is C_2h.


Analysis of symmetry for dynamics (positions and initial velocities):
=====================================================================
 Subroutine PRICEL returns:
 Original cell was already a primitive cell.
 

 Routine SETGRP: Setting up the symmetry group for a 
 simple monoclinic supercell.


 Subroutine GETGRP returns: Found  4 space group operations
 (whereof  2 operations were pure point group operations)
 out of a pool of  4 trial point group operations.


The dynamic configuration has the point symmetry S_2 .
 The point group associated with its full space group is C_2h.


 Subroutine INISYM returns: Found  4 space group operations
 (whereof  2 operations are pure point group operations),
 and found     1 'primitive' translations

 
 
 KPOINTS: Automatically generated mesh            
  k-points in reciprocal lattice
Space group operators:
 irot       det(A)        alpha          n_x          n_y          n_z        tau_x        tau_y        tau_z
    1     1.000000     0.000000     1.000000     0.000000     0.000000     0.000000     0.000000     0.000000
    2    -1.000000     0.000000     1.000000     0.000000     0.000000     0.000000     0.000000     0.000000
    3     1.000000   180.000000     1.000000     0.000000     0.000000    -0.500000     0.500000    -0.000000
    4    -1.000000   180.000000     1.000000     0.000000     0.000000    -0.500000     0.500000     0.000000

 ----------------------------------------------------------------------------- 
|                                                                             |
|           W    W    AA    RRRRR   N    N  II  N    N   GGGG   !!!           |
|           W    W   A  A   R    R  NN   N  II  NN   N  G    G  !!!           |
|           W    W  A    A  R    R  N N  N  II  N N  N  G       !!!           |
|           W WW W  AAAAAA  RRRRR   N  N N  II  N  N N  G  GGG   !            |
|           WW  WW  A    A  R   R   N   NN  II  N   NN  G    G                |
|           W    W  A    A  R    R  N    N  II  N    N   GGGG   !!!           |
|                                                                             |
|      Your generating k-point grid is not commensurate to the symmetry       |
|      of the lattice.  This can cause   slow convergence with respect        |
|      to k-points for HF type calculations                                   |
|      suggested SOLUTIONS:                                                   |
|       ) if not already the case, use automatic k-point generation           |
|       ) shift your grid to Gamma (G) (e.g. required for hex or fcc lattice) |
|                                                                             |
 ----------------------------------------------------------------------------- 

 
 Subroutine IBZKPT_HF returns following result:
 ==============================================
 
 Found     41 k-points in 1st BZ
 the following     41 k-points will be used (e.g. in the exchange kernel)
 Following reciprocal coordinates:   # in IRBZ
  0.000000  0.000000  0.000000    0.12500000   1 t-inv F
  0.500000  0.000000  0.000000    0.12500000   2 t-inv F
  0.000000  0.500000  0.000000    0.12500000   3 t-inv F
  0.500000  0.500000  0.000000    0.12500000   4 t-inv F
  0.000000  0.000000  0.500000    0.12500000   5 t-inv F
  0.500000  0.000000  0.500000    0.12500000   6 t-inv F
  0.000000  0.500000  0.500000    0.12500000   7 t-inv F
  0.500000  0.500000  0.500000    0.12500000   8 t-inv F
  0.000000  0.300000  0.500000    0.00000000   9 t-inv F
  0.000000  0.320000  0.500000    0.00000000  10 t-inv F
  0.000000  0.340000  0.500000    0.00000000  11 t-inv F
  0.000000  0.360000  0.500000    0.00000000  12 t-inv F
  0.000000  0.380000  0.500000    0.00000000  13 t-inv F
  0.000000  0.400000  0.500000    0.00000000  14 t-inv F
  0.000000  0.420000  0.500000    0.00000000  15 t-inv F
  0.000000  0.440000  0.500000    0.00000000  16 t-inv F
  0.000000  0.460000  0.500000    0.00000000  17 t-inv F
  0.000000  0.480000  0.500000    0.00000000  18 t-inv F
  0.000000  0.500000  0.500000    0.00000000  19 t-inv F
  0.000000  0.500000  0.500000    0.00000000  20 t-inv F
  0.050000  0.500000  0.450000    0.00000000  21 t-inv F
  0.100000  0.500000  0.400000    0.00000000  22 t-inv F
  0.150000  0.500000  0.350000    0.00000000  23 t-inv F
  0.200000  0.500000  0.300000    0.00000000  24 t-inv F
  0.250000  0.500000  0.250000    0.00000000  25 t-inv F
  0.300000  0.500000  0.200000    0.00000000  26 t-inv F
  0.350000  0.500000  0.150000    0.00000000  27 t-inv F
  0.400000  0.500000  0.100000    0.00000000  28 t-inv F
  0.450000  0.500000  0.050000    0.00000000  29 t-inv F
  0.500000  0.500000  0.000000    0.00000000  30 t-inv F
  0.000000  0.500000  0.000000    0.00000000  31 t-inv F
  0.000000  0.480000  0.000000    0.00000000  32 t-inv F
  0.000000  0.460000  0.000000    0.00000000  33 t-inv F
  0.000000  0.440000  0.000000    0.00000000  34 t-inv F
  0.000000  0.420000  0.000000    0.00000000  35 t-inv F
  0.000000  0.400000  0.000000    0.00000000  36 t-inv F
  0.000000  0.380000  0.000000    0.00000000  37 t-inv F
  0.000000  0.360000  0.000000    0.00000000  38 t-inv F
  0.000000  0.340000  0.000000    0.00000000  39 t-inv F
  0.000000  0.320000  0.000000    0.00000000  40 t-inv F
  0.000000  0.300000  0.000000    0.00000000  41 t-inv F


--------------------------------------------------------------------------------------------------------




 Dimension of arrays:
   k-points           NKPTS =     41   k-points in BZ     NKDIM =     41   number of bands    NBANDS=    232
   number of dos      NEDOS =    301   number of ions     NIONS =     48
   non local maximal  LDIM  =      6   non local SUM 2l+1 LMDIM =     18
   total plane-waves  NPLWV = 622080
   max r-space proj   IRMAX =   6969   max aug-charges    IRDMAX=  26771
   dimension x,y,z NGX =   144 NGY =   54 NGZ =   80
   dimension x,y,z NGXF=   288 NGYF=  108 NGZF=  160
   support grid    NGXF=   288 NGYF=  108 NGZF=  160
   ions per type =               4  12   4  28
   NGX,Y,Z   is equivalent  to a cutoff of  12.23, 12.54, 12.82 a.u.
   NGXF,Y,Z  is equivalent  to a cutoff of  24.46, 25.07, 25.63 a.u.

 SYSTEM =  MoTe2                                   
 POSCAR =  Cs4 Nb12 S4 Br28                        

 Startparameter for this run:
   NWRITE =      2    write-flag & timer
   PREC   = accura    normal or accurate (medium, high low for compatibility)
   ISTART =      1    job   : 0-new  1-cont  2-samecut
   ICHARG =      2    charge: 1-file 2-atom 10-const
   ISPIN  =      1    spin polarized calculation?
   LNONCOLLINEAR =      F non collinear calculations
   LSORBIT =      F    spin-orbit coupling
   INIWAV =      1    electr: 0-lowe 1-rand  2-diag
   LASPH  =      F    aspherical Exc in radial PAW
   METAGGA=      F    non-selfconsistent MetaGGA calc.

 Electronic Relaxation 1
   ENCUT  =  500.0 eV  36.75 Ry    6.06 a.u.  35.68 13.06 18.92*2*pi/ulx,y,z
   ENINI  =  500.0     initial cutoff
   ENAUG  =  503.9 eV  augmentation charge cutoff
   NELM   =     60;   NELMIN=  2; NELMDL=  0     # of ELM steps 
   EDIFF  = 0.1E-04   stopping-criterion for ELM
   LREAL  =      T    real-space projection
   NLSPLINE    = F    spline interpolate recip. space projectors
   LCOMPAT=      F    compatible to vasp.4.4
   GGA_COMPAT  = T    GGA compatible to vasp.4.4-vasp.4.6
   LMAXPAW     = -100 max onsite density
   LMAXMIX     =    2 max onsite mixed and CHGCAR
   VOSKOWN=      0    Vosko Wilk Nusair interpolation
   ROPT   =   -0.00025  -0.00025  -0.00025  -0.00025
 Ionic relaxation
   EDIFFG = -.1E-01   stopping-criterion for IOM
   NSW    =      0    number of steps for IOM
   NBLOCK =      1;   KBLOCK =      1    inner block; outer block 
   IBRION =     -1    ionic relax: 0-MD 1-quasi-New 2-CG
   NFREE  =      0    steps in history (QN), initial steepest desc. (CG)
   ISIF   =      0    stress and relaxation
   IWAVPR =     10    prediction:  0-non 1-charg 2-wave 3-comb
   ISYM   =      3    0-nonsym 1-usesym 2-fastsym
   LCORR  =      T    Harris-Foulkes like correction to forces

   POTIM  = 0.5000    time-step for ionic-motion
   TEIN   =    0.0    initial temperature
   TEBEG  =    0.0;   TEEND  =   0.0 temperature during run
   SMASS  =  -3.00    Nose mass-parameter (am)
   estimated Nose-frequenzy (Omega)   =  0.10E-29 period in steps =****** mass=  -0.875E-26a.u.
   SCALEE = 1.0000    scale energy and forces
   NPACO  =    256;   APACO  = 16.0  distance and # of slots for P.C.
   PSTRESS=    0.0 pullay stress

  Mass of Ions in am
   POMASS = 132.90 92.00 32.07 79.90
  Ionic Valenz
   ZVAL   =   9.00 11.00  6.00  7.00
  Atomic Wigner-Seitz radii
   RWIGS  =  -1.00 -1.00 -1.00 -1.00
  virtual crystal weights 
   VCA    =   1.00  1.00  1.00  1.00
   NELECT =     388.0000    total number of electrons
   NUPDOWN=      -1.0000    fix difference up-down

 DOS related values:
   EMIN   =  10.00;   EMAX   =-10.00  energy-range for DOS
   EFERMI =   0.00
   ISMEAR =     0;   SIGMA  =   0.05  broadening in eV -4-tet -1-fermi 0-gaus

 Electronic relaxation 2 (details)
   IALGO  =     53    algorithm
   LDIAG  =      T    sub-space diagonalisation (order eigenvalues)
   LSUBROT=      F    optimize rotation matrix (better conditioning)
   TURBO    =      0    0=normal 1=particle mesh
   IRESTART =      0    0=no restart 2=restart with 2 vectors
   NREBOOT  =      0    no. of reboots
   NMIN     =      0    reboot dimension
   EREF     =   0.00    reference energy to select bands
   IMIX   =      4    mixing-type and parameters
     AMIX     =   0.40;   BMIX     =  1.00
     AMIX_MAG =   1.60;   BMIX_MAG =  1.00
     AMIN     =   0.10
     WC   =   100.;   INIMIX=   1;  MIXPRE=   1;  MAXMIX= -45

 Intra band minimization:
   WEIMIN = 0.0000     energy-eigenvalue tresh-hold
   EBREAK =  0.11E-07  absolut break condition
   DEPER  =   0.30     relativ break condition  

   TIME   =   0.40     timestep for ELM

  volume/ion in A,a.u.               =      30.03       202.63
  Fermi-wavevector in a.u.,A,eV,Ry     =   1.057075  1.997583 15.203262  1.117408
  Thomas-Fermi vector in A             =   2.192335
 
 Write flags
   LWAVE        =      F    write WAVECAR
   LDOWNSAMPLE  =      F    k-point downsampling of WAVECAR
   LCHARG       =      F    write CHGCAR
   LVTOT        =      F    write LOCPOT, total local potential
   LVHAR        =      F    write LOCPOT, Hartree potential only
   LELF         =      F    write electronic localiz. function (ELF)
   LORBIT       =      0    0 simple, 1 ext, 2 COOP (PROOUT), +10 PAW based schemes


 Dipole corrections
   LMONO  =      F    monopole corrections only (constant potential shift)
   LDIPOL =      F    correct potential (dipole corrections)
   IDIPOL =      0    1-x, 2-y, 3-z, 4-all directions 
   EPSILON=  1.0000000 bulk dielectric constant

 Exchange correlation treatment:
   GGA     =    PE    GGA type
   LEXCH   =     8    internal setting for exchange type
   VOSKOWN=      0    Vosko Wilk Nusair interpolation
   EXXOEP  =     0    0=HF, 1=EXX-LHF (local Hartree Fock) 2=EXX OEP
   LHFCALC =     T    Hartree Fock is set to
   LSYMGRAD=     F    symmetrize gradient (conserves proper symmetry)
   PRECFOCK=normal    Normal, Fast or Accurate (Low or Medium for compatibility)
   LRHFCALC=     F    long range Hartree Fock
   LRSCOR  =     F    long range correlation only (use DFT for short range part)
   LTHOMAS =     F    Thomas Fermi screening in HF
   LMODELHF=     F    short range full HF, long range fraction AEXX
   ENCUT4O =  -1.0   cutoff for four orbital integrals eV
   LMAXFOCK=     4    L truncation for augmentation on plane wave grid
   LMAXFOCKAE=  -1    L truncation for all-electron charge restoration on plane wave grid
   NMAXFOCKAE=   1    number of basis functions for all-electron charge restoration
   LFOCKAEDFT=     F  apply the AE augmentation even for DFT
   NKREDX  =     1    reduce k-point grid by
   NKREDY  =     1    reduce k-point grid by
   NKREDZ  =     1    reduce k-point grid by
   SHIFTRED=     F    shift reduced grid of Gamma
   HFKIDENT=     F    idential grid for each k-point
   ODDONLY =     F    use only odd q-grid points
   EVENONLY=     F    use only even q-grid points
   HFALPHA =   -1.0000 decay constant for conv. correction
   MCALPHA =    0.0000 extent of test-charge in conv. correction in multipole expansion
   AEXX    =    0.2500 exact exchange contribution
   HFSCREEN=    0.2000 screening length (either q_TF or 0.3 A-1)
   HFSCREENC=   0.2000 screening length for correlation (either q_TF or 0.3 A-1)
   HFRCUT  =    0.0000 spherical cutoff for potential kernel
   ALDAX   =    0.7500 LDA exchange part
   AGGAX   =    0.7500 GGA exchange part
   ALDAC   =    1.0000 LDA correlation
   AGGAC   =    1.0000 GGA correlation
   ENCUTFOCK=  -1.0 apply spherical cutoff to Coloumb kernel
   NBANDSGWLOW=     1    first orbital included in HF term
   NBLOCK_FOCK=    64    blocking factor in FOCK_ACC
 Linear response parameters
   LEPSILON=     F    determine dielectric tensor
   LRPA    =     F    only Hartree local field effects (RPA)
   LNABLA  =     F    use nabla operator in PAW spheres
   LVEL    =     F    velocity operator in full k-point grid
   LINTERFAST=   F  fast interpolation
   KINTER  =     0    interpolate to denser k-point grid
   CSHIFT  =0.1000    complex shift for real part using Kramers Kronig
   OMEGAMAX=  -1.0    maximum frequency
   DEG_THRESHOLD= 0.2000000E-02 threshold for treating states as degnerate
   RTIME   =   -0.100 relaxation time in fs
  (WPLASMAI=    0.000 imaginary part of plasma frequency in eV, 0.658/RTIME)
   DFIELD  = 0.0000000 0.0000000 0.0000000 field for delta impulse in time
 
 Orbital magnetization related:
   ORBITALMAG=     F  switch on orbital magnetization
   LCHIMAG   =     F  perturbation theory with respect to B field
   DQ        =  0.001000  dq finite difference perturbation B field
   LLRAUG    =     F  two centre corrections for induced B field



--------------------------------------------------------------------------------------------------------


 Static calculation
 charge density and potential will be updated during run
 non-spin polarized calculation
 Conjugate gradient for all bands (Freysoldt, et al. PRB 79, 241103 (2009))
 perform sub-space diagonalisation
    before iterative eigenvector-optimisation
 modified Broyden-mixing scheme, WC =      100.0
 initial mixing is a Kerker type mixing with AMIX =  0.4000 and BMIX =      1.0000
 Hartree-type preconditioning will be used
 using additional bands           38
 real space projection scheme for non local part
 use partial core corrections
 no Harris-corrections to forces 
 use gradient corrections 
 use of overlap-Matrix (Vanderbilt PP)
 Gauss-broadening in eV      SIGMA  =   0.05


--------------------------------------------------------------------------------------------------------


  energy-cutoff  :      500.00
  volume of cell :     1441.25
      direct lattice vectors                 reciprocal lattice vectors
    19.572162628  0.000000000  0.000000000     0.051092974  0.000000000  0.000000000
     0.000000000  7.160604000  0.000000000     0.000000000  0.139653024 -0.018854176
     0.000000000  1.388376246 10.283713099     0.000000000  0.000000000  0.097241141

  length of vectors
    19.572162628  7.160604000 10.377010345     0.051092974  0.140920002  0.097241141


 
 old parameters found on file WAVECAR:
  energy-cutoff  :      500.00
  volume of cell :     1441.25
      direct lattice vectors                 reciprocal lattice vectors
    19.572162628  0.000000000  0.000000000     0.051092974  0.000000000  0.000000000
     0.000000000  7.160604000  0.000000000     0.000000000  0.139653024 -0.018854176
     0.000000000  1.388376246 10.283713099     0.000000000  0.000000000  0.097241141

  length of vectors

 
 k-points in units of 2pi/SCALE and weight: Automatically generated mesh            
   0.00000000  0.00000000  0.00000000       0.125
   0.02554649  0.00000000  0.00000000       0.125
   0.00000000  0.06982651 -0.00942709       0.125
   0.02554649  0.06982651 -0.00942709       0.125
   0.00000000  0.00000000  0.04862057       0.125
   0.02554649  0.00000000  0.04862057       0.125
   0.00000000  0.06982651  0.03919348       0.125
   0.02554649  0.06982651  0.03919348       0.125
   0.00000000  0.04189591  0.04296432       0.000
   0.00000000  0.04468897  0.04258723       0.000
   0.00000000  0.04748203  0.04221015       0.000
   0.00000000  0.05027509  0.04183307       0.000
   0.00000000  0.05306815  0.04145598       0.000
   0.00000000  0.05586121  0.04107890       0.000
   0.00000000  0.05865427  0.04070182       0.000
   0.00000000  0.06144733  0.04032473       0.000
   0.00000000  0.06424039  0.03994765       0.000
   0.00000000  0.06703345  0.03957057       0.000
   0.00000000  0.06982651  0.03919348       0.000
   0.00000000  0.06982651  0.03919348       0.000
   0.00255465  0.06982651  0.03433143       0.000
   0.00510930  0.06982651  0.02946937       0.000
   0.00766395  0.06982651  0.02460731       0.000
   0.01021859  0.06982651  0.01974525       0.000
   0.01277324  0.06982651  0.01488320       0.000
   0.01532789  0.06982651  0.01002114       0.000
   0.01788254  0.06982651  0.00515908       0.000
   0.02043719  0.06982651  0.00029703       0.000
   0.02299184  0.06982651 -0.00456503       0.000
   0.02554649  0.06982651 -0.00942709       0.000
   0.00000000  0.06982651 -0.00942709       0.000
   0.00000000  0.06703345 -0.00905000       0.000
   0.00000000  0.06424039 -0.00867292       0.000
   0.00000000  0.06144733 -0.00829584       0.000
   0.00000000  0.05865427 -0.00791875       0.000
   0.00000000  0.05586121 -0.00754167       0.000
   0.00000000  0.05306815 -0.00716459       0.000
   0.00000000  0.05027509 -0.00678750       0.000
   0.00000000  0.04748203 -0.00641042       0.000
   0.00000000  0.04468897 -0.00603334       0.000
   0.00000000  0.04189591 -0.00565625       0.000
 
 k-points in reciprocal lattice and weights: Automatically generated mesh            
   0.00000000  0.00000000  0.00000000       0.125
   0.50000000  0.00000000  0.00000000       0.125
   0.00000000  0.50000000  0.00000000       0.125
   0.50000000  0.50000000  0.00000000       0.125
   0.00000000  0.00000000  0.50000000       0.125
   0.50000000  0.00000000  0.50000000       0.125
   0.00000000  0.50000000  0.50000000       0.125
   0.50000000  0.50000000  0.50000000       0.125
   0.00000000  0.30000000  0.50000000       0.000
   0.00000000  0.32000000  0.50000000       0.000
   0.00000000  0.34000000  0.50000000       0.000
   0.00000000  0.36000000  0.50000000       0.000
   0.00000000  0.38000000  0.50000000       0.000
   0.00000000  0.40000000  0.50000000       0.000
   0.00000000  0.42000000  0.50000000       0.000
   0.00000000  0.44000000  0.50000000       0.000
   0.00000000  0.46000000  0.50000000       0.000
   0.00000000  0.48000000  0.50000000       0.000
   0.00000000  0.50000000  0.50000000       0.000
   0.00000000  0.50000000  0.50000000       0.000
   0.05000000  0.50000000  0.45000000       0.000
   0.10000000  0.50000000  0.40000000       0.000
   0.15000000  0.50000000  0.35000000       0.000
   0.20000000  0.50000000  0.30000000       0.000
   0.25000000  0.50000000  0.25000000       0.000
   0.30000000  0.50000000  0.20000000       0.000
   0.35000000  0.50000000  0.15000000       0.000
   0.40000000  0.50000000  0.10000000       0.000
   0.45000000  0.50000000  0.05000000       0.000
   0.50000000  0.50000000  0.00000000       0.000
   0.00000000  0.50000000  0.00000000       0.000
   0.00000000  0.48000000  0.00000000       0.000
   0.00000000  0.46000000  0.00000000       0.000
   0.00000000  0.44000000  0.00000000       0.000
   0.00000000  0.42000000  0.00000000       0.000
   0.00000000  0.40000000  0.00000000       0.000
   0.00000000  0.38000000  0.00000000       0.000
   0.00000000  0.36000000  0.00000000       0.000
   0.00000000  0.34000000  0.00000000       0.000
   0.00000000  0.32000000  0.00000000       0.000
   0.00000000  0.30000000  0.00000000       0.000
 
 position of ions in fractional coordinates (direct lattice) 
   0.40520199  0.76872197  0.88459999
   0.09479800  0.26872201  0.88459999
   0.90520199  0.73127799  0.11540000
   0.59479801  0.23127799  0.11540000
   0.82768498  0.13471601  0.57874697
   0.67227999  0.03741600  0.57922697
   0.17228000  0.46258400  0.42077301
   0.67231502  0.63471591  0.57874697
   0.33012598  0.21310298  0.17458900
   0.66987399  0.78689696  0.82541108
   0.32768500  0.36528399  0.42125301
   0.16987399  0.71310305  0.17458900
   0.17231500  0.86528399  0.42125301
   0.83012596  0.28689700  0.82541108
   0.82771996  0.53741600  0.57922697
   0.32771999  0.96258404  0.42077301
   0.76231498  0.81748499  0.67325999
   0.26231500  0.68251504  0.32674001
   0.73768502  0.31748499  0.67325999
   0.23768500  0.18251499  0.32674001
   0.75008303  0.01093099  0.95642505
   0.41396401  0.13764700  0.55523301
   0.74991697  0.51093096  0.95642505
   0.07943200  0.94937701  0.24077501
   0.59857101  0.74086996  0.05725900
   0.42013901  0.94979104  0.23899301
   0.90142904  0.24087000  0.05725900
   0.75017001  0.12530800  0.36914400
   0.25008301  0.48906903  0.04357500
   0.40142899  0.25912998  0.94274097
   0.08603600  0.63764695  0.55523301
   0.57943200  0.55062302  0.75922504
   0.24991699  0.98906899  0.04357500
   0.92056795  0.05062298  0.75922504
   0.58603604  0.86235308  0.44476701
   0.91396401  0.36235298  0.44476701
   0.09857100  0.75912994  0.94274097
   0.24982999  0.87469203  0.63085600
   0.92013897  0.55020899  0.76100701
   0.10100399  0.14254899  0.53351202
   0.57986099  0.05020900  0.76100701
   0.74982999  0.62530800  0.36914400
   0.42056800  0.44937697  0.24077501
   0.89899595  0.85745102  0.46648801
   0.60100400  0.35745098  0.46648801
   0.25016998  0.37469200  0.63085600
   0.39899600  0.64254901  0.53351202
   0.07986100  0.44979101  0.23899301
 
 position of ions in cartesian coordinates  (Angst):
   7.93067932  6.73267126  9.09697246
   1.85540187  3.15236950  9.09697246
  17.71676064  5.39661074  1.18674052
  11.64148330  1.81630874  1.18674052
  16.19958496  1.76816654  5.95166779
  13.15797330  1.07210612  5.95660400
   3.37189222  3.89657211  4.32710886
  13.15865899  5.34846783  5.95166779
   6.46127939  1.76834130  1.79542315
  13.11088275  6.78063869  8.48829079
   6.41350413  3.20051169  4.33204508
   3.32480144  5.34864378  1.79542315
   3.37257718  6.78081369  4.33204508
  16.24736023  3.20033694  8.48829079
  16.20026971  4.65240812  5.95660400
   6.41418886  7.47687435  4.32710886
  14.92015266  6.78842449  6.92361260
   5.13407182  5.34085799  3.36010051
  14.43809128  3.20812249  6.92361260
   4.65200949  1.76055563  3.36010051
  14.68074703  1.40615034  9.83560086
   8.10217095  1.75650799  5.70985699
  14.67749691  4.98645210  9.83560086
   1.55465602  7.13239908  2.47606110
  11.71532917  5.38457346  0.58883518
   8.22302913  7.13288974  2.45773554
  17.64291573  1.80427170  0.58883518
  14.68244934  1.40979171  3.79617095
   4.89466524  3.56252814  0.44811282
   7.85683346  3.16440630  9.69487762
   1.68391049  5.33680964  5.70985699
  11.34073734  4.99688339  7.80765247
   4.89141607  7.14282989  0.44811282
  18.01750565  1.41658115  7.80765247
  11.46999264  6.79247284  4.57385636
  17.88825226  3.21217013  4.57385636
   1.92924774  6.74470806  9.69487762
   4.88971329  7.13918877  6.48754215
  18.00910950  4.99639273  7.82597780
   1.97686660  1.76145232  5.48648453
  11.34913350  1.41609084  7.82597780
  14.67579461  4.99009371  3.79617095
   8.23142529  3.55209685  2.47606110
  17.59529496  6.78752804  4.79722882
  11.76294803  3.20722580  4.79722882
   4.89636755  3.55888652  6.48754215
   7.80921460  5.34175444  5.48648453
   1.56305254  3.55258751  2.45773554
 


--------------------------------------------------------------------------------------------------------


 k-point  1 :   0.0000 0.0000 0.0000  plane waves:   36535
 k-point  2 :   0.5000 0.0000 0.0000  plane waves:   36564
 k-point  3 :   0.0000 0.5000 0.0000  plane waves:   36550
 k-point  4 :   0.5000 0.5000 0.0000  plane waves:   36532
 k-point  5 :   0.0000 0.0000 0.5000  plane waves:   36502
 k-point  6 :   0.5000 0.0000 0.5000  plane waves:   36572
 k-point  7 :   0.0000 0.5000 0.5000  plane waves:   36654
 k-point  8 :   0.5000 0.5000 0.5000  plane waves:   36652
 k-point  9 :   0.0000 0.3000 0.5000  plane waves:   36613
 k-point 10 :   0.0000 0.3200 0.5000  plane waves:   36614
 k-point 11 :   0.0000 0.3400 0.5000  plane waves:   36603
 k-point 12 :   0.0000 0.3600 0.5000  plane waves:   36619
 k-point 13 :   0.0000 0.3800 0.5000  plane waves:   36643
 k-point 14 :   0.0000 0.4000 0.5000  plane waves:   36640
 k-point 15 :   0.0000 0.4200 0.5000  plane waves:   36634
 k-point 16 :   0.0000 0.4400 0.5000  plane waves:   36645
 k-point 17 :   0.0000 0.4600 0.5000  plane waves:   36663
 k-point 18 :   0.0000 0.4800 0.5000  plane waves:   36666
 k-point 19 :   0.0000 0.5000 0.5000  plane waves:   36654
 k-point 20 :   0.0000 0.5000 0.5000  plane waves:   36654
 k-point 21 :   0.0500 0.5000 0.4500  plane waves:   36654
 k-point 22 :   0.1000 0.5000 0.4000  plane waves:   36645
 k-point 23 :   0.1500 0.5000 0.3500  plane waves:   36629
 k-point 24 :   0.2000 0.5000 0.3000  plane waves:   36637
 k-point 25 :   0.2500 0.5000 0.2500  plane waves:   36634
 k-point 26 :   0.3000 0.5000 0.2000  plane waves:   36598
 k-point 27 :   0.3500 0.5000 0.1500  plane waves:   36589
 k-point 28 :   0.4000 0.5000 0.1000  plane waves:   36569
 k-point 29 :   0.4500 0.5000 0.0500  plane waves:   36542
 k-point 30 :   0.5000 0.5000 0.0000  plane waves:   36532
 k-point 31 :   0.0000 0.5000 0.0000  plane waves:   36550
 k-point 32 :   0.0000 0.4800 0.0000  plane waves:   36555
 k-point 33 :   0.0000 0.4600 0.0000  plane waves:   36572
 k-point 34 :   0.0000 0.4400 0.0000  plane waves:   36600
 k-point 35 :   0.0000 0.4200 0.0000  plane waves:   36597
 k-point 36 :   0.0000 0.4000 0.0000  plane waves:   36610
 k-point 37 :   0.0000 0.3800 0.0000  plane waves:   36586
 k-point 38 :   0.0000 0.3600 0.0000  plane waves:   36573
 k-point 39 :   0.0000 0.3400 0.0000  plane waves:   36580
 k-point 40 :   0.0000 0.3200 0.0000  plane waves:   36570
 k-point 41 :   0.0000 0.3000 0.0000  plane waves:   36575

 maximum and minimum number of plane-waves per node :      6162     6016

 maximum number of plane-waves:     36666
 maximum index in each direction: 
   IXMAX=   35   IYMAX=   13   IZMAX=   18
   IXMIN=  -36   IYMIN=  -13   IZMIN=  -19


 real space projection operators:
  total allocation   :      26025.31 KBytes
  max/ min on nodes  :       4346.33       4323.31


 parallel 3D FFT for wavefunctions:
    minimum data exchange during FFTs selected (reduces bandwidth)
 parallel 3D FFT for charge:
    minimum data exchange during FFTs selected (reduces bandwidth)


 FFT grid for exact exchange (Hartree Fock) 
  NGX =112; NGY = 40; NGZ = 60

 
 Radii for the augmentation spheres in the non-local exchange
 for species   1 augmentation radius   1.414 (default was   1.131)
       energy cutoff for augmentation   2000.0
 for species   2 augmentation radius   1.516 (default was   1.212)
       energy cutoff for augmentation   2000.0
 for species   3 augmentation radius   1.212 (default was   0.970)
       energy cutoff for augmentation   2000.0
 for species   4 augmentation radius   1.272 (default was   1.018)
       energy cutoff for augmentation   2000.0

 real space projection operators:
  total allocation   :      17285.88 KBytes
  max/ min on nodes  :       2929.23       2855.22

 Maximum index for augmentation-charges in exchange          476
  SETUP_FOCK is finished

 total amount of memory used by VASP MPI-rank0   805694. kBytes
=======================================================================

   base      :      30000. kBytes
   nonlr-proj:      16801. kBytes
   fftplans  :      20048. kBytes
   grid      :      29859. kBytes
   one-center:        124. kBytes
   HF        :        259. kBytes
   wavefun   :     708603. kBytes
 
     INWAV:  cpu time   12.4261: real time   12.4392
 Broyden mixing: mesh for mixing (old mesh)
   NGX = 71   NGY = 27   NGZ = 37
  (NGX  =288   NGY  =108   NGZ  =160)
  gives a total of  70929 points

 initial charge density was supplied:
 charge density of overlapping atoms calculated
 number of electron     388.0000000 magnetization 
 charge density for first step will be calculated from the start-wavefunctions


--------------------------------------------------------------------------------------------------------


 Maximum index for non-local projection operator         1131
 Maximum index for augmentation-charges         1079 (set IRDMAX)


--------------------------------------------------------------------------------------------------------


 initial charge from wavefunction
 First call to EWALD:  gamma=   0.157
 Maximum number of real-space cells 2x 4x 3
 Maximum number of reciprocal cells 4x 2x 3

    FEWALD:  cpu time    0.0020: real time    0.0023


--------------------------------------- Iteration      1(   1)  ---------------------------------------


    POTLOK:  cpu time    0.8549: real time    0.8574
    SETDIJ:  cpu time    0.3339: real time    0.3333
    TRIAL :  cpu time15239.0363: real time15266.7593
    CORREC:  cpu time    0.0060: real time    0.0059
    CHARGE:  cpu time    1.1978: real time    1.2010
    --------------------------------------------
      LOOP:  cpu time15241.6619: real time15269.4038

 eigenvalue-minimisations  :     0
 total energy-change (2. order) :-0.2895935E+03  (-0.1343110E+01)
 number of electron     388.0000012 magnetization 
 augmentation part       -1.8469055 magnetization 

 Free energy of the ion-electron system (eV)
  ---------------------------------------------------
  alpha Z        PSCENC =      1398.37695978
  Ewald energy   TEWEN  =    -15345.76116035
  -Hartree energ DENC   =    -10023.38299459
  -exchange      EXHF   =       762.07015236
  -V(xc)+E(xc)   XCENC  =       509.10907182
  PAW double counting   =     31935.35519996   -31598.82198081
  entropy T*S    EENTRO =        -0.04162836
  eigenvalues    EBANDS =     -4014.85417778
  atomic energy  EATOM  =     26088.35735181
  ---------------------------------------------------
  free energy    TOTEN  =      -289.59353015 eV

  energy without entropy =     -289.55190179  energy(sigma->0) =     -289.57271597
  exchange ACFDT corr.  =        -0.07530102  see jH, gK, PRB 81, 115126


--------------------------------------------------------------------------------------------------------




--------------------------------------- Iteration      1(   2)  ---------------------------------------


    POTLOK:  cpu time    0.8569: real time    0.8586
    SETDIJ:  cpu time    0.3319: real time    0.3317
    TRIAL :  cpu time15070.7489: real time15099.0835
    CORREC:  cpu time    0.0060: real time    0.0065
    CHARGE:  cpu time    1.1888: real time    1.1942
    --------------------------------------------
      LOOP:  cpu time15073.1345: real time15101.4796

 eigenvalue-minimisations  :     0
 total energy-change (2. order) :-0.6674669E+00  (-0.6512926E+00)
 number of electron     388.0000012 magnetization 
 augmentation part       -1.3858446 magnetization 

 Free energy of the ion-electron system (eV)
  ---------------------------------------------------
  alpha Z        PSCENC =      1398.37695978
  Ewald energy   TEWEN  =    -15345.76116035
  -Hartree energ DENC   =     -9961.83097478
  -exchange      EXHF   =       762.17331291
  -V(xc)+E(xc)   XCENC  =       508.54555077
  PAW double counting   =     35199.27251475   -34865.26851109
  entropy T*S    EENTRO =        -0.04088986
  eigenvalues    EBANDS =     -4074.08441249
  atomic energy  EATOM  =     26088.35735181
  ---------------------------------------------------
  free energy    TOTEN  =      -290.26099705 eV

  energy without entropy =     -290.22010719  energy(sigma->0) =     -290.24055212
  exchange ACFDT corr.  =        -0.07400442  see jH, gK, PRB 81, 115126


--------------------------------------------------------------------------------------------------------




--------------------------------------- Iteration      1(   3)  ---------------------------------------


    POTLOK:  cpu time    0.8599: real time    0.8604
    SETDIJ:  cpu time    0.3319: real time    0.3319
    TRIAL :  cpu time15223.6007: real time15249.3541
    CORREC:  cpu time    0.0070: real time    0.0075
    CHARGE:  cpu time    1.1948: real time    1.1963
    --------------------------------------------
      LOOP:  cpu time15225.9953: real time15252.0357

 eigenvalue-minimisations  :     0
 total energy-change (2. order) :-0.3926606E+00  (-0.2550176E+00)
 number of electron     388.0000012 magnetization 
 augmentation part       -1.3118249 magnetization 

 Free energy of the ion-electron system (eV)
  ---------------------------------------------------
  alpha Z        PSCENC =      1398.37695978
  Ewald energy   TEWEN  =    -15345.76116035
  -Hartree energ DENC   =     -9980.18784770
  -exchange      EXHF   =       762.93940190
  -V(xc)+E(xc)   XCENC  =       509.40099528
  PAW double counting   =     34182.86367988   -33848.64687759
  entropy T*S    EENTRO =        -0.03749948
  eigenvalues    EBANDS =     -4057.95527084
  atomic energy  EATOM  =     26088.35735181
  ---------------------------------------------------
  free energy    TOTEN  =      -290.65365769 eV

  energy without entropy =     -290.61615820  energy(sigma->0) =     -290.63490794
  exchange ACFDT corr.  =        -0.07208279  see jH, gK, PRB 81, 115126


--------------------------------------------------------------------------------------------------------




--------------------------------------- Iteration      1(   4)  ---------------------------------------


    POTLOK:  cpu time    0.8589: real time    0.8608
    SETDIJ:  cpu time    0.3319: real time    0.3318
    TRIAL :  cpu time15223.6327: real time15251.2263
    CORREC:  cpu time    0.0040: real time    0.0044
    CHARGE:  cpu time    1.1948: real time    1.1971
    --------------------------------------------
      LOOP:  cpu time15226.0233: real time15253.9064

 eigenvalue-minimisations  :     0
 total energy-change (2. order) : 0.1920718E+00  (-0.7052714E+01)
 number of electron     388.0000012 magnetization 
 augmentation part       -1.4264825 magnetization 

 Free energy of the ion-electron system (eV)
  ---------------------------------------------------
  alpha Z        PSCENC =      1398.37695978
  Ewald energy   TEWEN  =    -15345.76116035
  -Hartree energ DENC   =     -9982.03363135
  -exchange      EXHF   =       763.27776175
  -V(xc)+E(xc)   XCENC  =       509.68476547
  PAW double counting   =     33904.05577070   -33570.12308390
  entropy T*S    EENTRO =        -0.00000744
  eigenvalues    EBANDS =     -4056.25882027
  atomic energy  EATOM  =     26088.35735181
  ---------------------------------------------------
  free energy    TOTEN  =      -290.46158585 eV

  energy without entropy =     -290.46157841  energy(sigma->0) =     -290.46158213
  exchange ACFDT corr.  =        -0.06819473  see jH, gK, PRB 81, 115126


--------------------------------------------------------------------------------------------------------




--------------------------------------- Iteration      1(   5)  ---------------------------------------


    POTLOK:  cpu time    0.8589: real time    0.8608
    SETDIJ:  cpu time    0.3319: real time    0.3320
    TRIAL :  cpu time15174.2462: real time15202.1661
    CORREC:  cpu time    0.0050: real time    0.0055
    CHARGE:  cpu time    1.1988: real time    1.2009
    --------------------------------------------
      LOOP:  cpu time15176.6428: real time15204.8537

 eigenvalue-minimisations  :     0
 total energy-change (2. order) : 0.5156724E+01  (-0.1218446E+02)
 number of electron     388.0000012 magnetization 
 augmentation part       -1.3667783 magnetization 

 Free energy of the ion-electron system (eV)
  ---------------------------------------------------
  alpha Z        PSCENC =      1398.37695978
  Ewald energy   TEWEN  =    -15345.76116035
  -Hartree energ DENC   =     -9976.36109518
  -exchange      EXHF   =       763.48005831
  -V(xc)+E(xc)   XCENC  =       509.59982135
  PAW double counting   =     34543.25564376   -34210.03618060
  entropy T*S    EENTRO =        -0.01004605
  eigenvalues    EBANDS =     -4056.21625281
  atomic energy  EATOM  =     26088.35735181
  ---------------------------------------------------
  free energy    TOTEN  =      -285.30486137 eV

  energy without entropy =     -285.29481532  energy(sigma->0) =     -285.29983834
  exchange ACFDT corr.  =        -0.38994467  see jH, gK, PRB 81, 115126


--------------------------------------------------------------------------------------------------------




--------------------------------------- Iteration      1(   6)  ---------------------------------------


    POTLOK:  cpu time    0.8589: real time    0.8600
    SETDIJ:  cpu time    0.3319: real time    0.3318
    TRIAL :  cpu time15424.2122: real time15451.7251
    CORREC:  cpu time    0.0040: real time    0.0041
    CHARGE:  cpu time    1.1938: real time    1.1969
    --------------------------------------------
      LOOP:  cpu time15426.6018: real time15454.4436

 eigenvalue-minimisations  :     0
 total energy-change (2. order) : 0.9772161E+01  (-0.9564344E+02)
 number of electron     388.0000012 magnetization 
 augmentation part       -1.3753539 magnetization 

 Free energy of the ion-electron system (eV)
  ---------------------------------------------------
  alpha Z        PSCENC =      1398.37695978
  Ewald energy   TEWEN  =    -15345.76116035
  -Hartree energ DENC   =     -9989.34285517
  -exchange      EXHF   =       763.54450099
  -V(xc)+E(xc)   XCENC  =       509.69859743
  PAW double counting   =     34839.22285470   -34506.08721819
  entropy T*S    EENTRO =        -0.00000327
  eigenvalues    EBANDS =     -4033.53168497
  atomic energy  EATOM  =     26088.35735181
  ---------------------------------------------------
  free energy    TOTEN  =      -275.53270002 eV

  energy without entropy =     -275.53269675  energy(sigma->0) =     -275.53269838
  exchange ACFDT corr.  =        -5.30221976  see jH, gK, PRB 81, 115126


--------------------------------------------------------------------------------------------------------




--------------------------------------- Iteration      1(   7)  ---------------------------------------


    POTLOK:  cpu time    0.8599: real time    0.8603
    SETDIJ:  cpu time    0.3310: real time    0.3314
    TRIAL :  cpu time15194.5691: real time15221.8291
    CORREC:  cpu time    0.0030: real time    0.0037
    CHARGE:  cpu time    1.1898: real time    1.1925
    --------------------------------------------
      LOOP:  cpu time15196.9547: real time15224.2280

 eigenvalue-minimisations  :     0
 total energy-change (2. order) :-0.5937048E+00  (-0.2735515E+02)
 number of electron     388.0000012 magnetization 
 augmentation part       -1.3129635 magnetization 

 Free energy of the ion-electron system (eV)
  ---------------------------------------------------
  alpha Z        PSCENC =      1398.37695978
  Ewald energy   TEWEN  =    -15345.76116035
  -Hartree energ DENC   =     -9985.02202452
  -exchange      EXHF   =       763.59288326
  -V(xc)+E(xc)   XCENC  =       509.73723266
  PAW double counting   =     35004.19813540   -34670.95809585
  entropy T*S    EENTRO =        -0.00000000
  eigenvalues    EBANDS =     -4038.64768372
  atomic energy  EATOM  =     26088.35735181
  ---------------------------------------------------
  free energy    TOTEN  =      -276.12640479 eV

  energy without entropy =     -276.12640479  energy(sigma->0) =     -276.12640479
  exchange ACFDT corr.  =        -8.39033201  see jH, gK, PRB 81, 115126


--------------------------------------------------------------------------------------------------------




--------------------------------------- Iteration      1(   8)  ---------------------------------------


    POTLOK:  cpu time    0.8579: real time    0.8598
    SETDIJ:  cpu time    0.3329: real time    0.3324
    TRIAL :  cpu time15256.8856: real time15284.2879
    CORREC:  cpu time    0.0030: real time    0.0031
    CHARGE:  cpu time    1.1938: real time    1.1973
    --------------------------------------------
      LOOP:  cpu time15259.2752: real time15286.6856

 eigenvalue-minimisations  :     0
 total energy-change (2. order) :-0.4602457E+01  (-0.1680648E+02)
 number of electron     388.0000012 magnetization 
 augmentation part       -1.4047368 magnetization 

 Free energy of the ion-electron system (eV)
  ---------------------------------------------------
  alpha Z        PSCENC =      1398.37695978
  Ewald energy   TEWEN  =    -15345.76116035
  -Hartree energ DENC   =     -9991.66943109
  -exchange      EXHF   =       763.86582393
  -V(xc)+E(xc)   XCENC  =       509.92443268
  PAW double counting   =     34831.83847332   -34498.42777643
  entropy T*S    EENTRO =        -0.00000000
  eigenvalues    EBANDS =     -4037.23353518
  atomic energy  EATOM  =     26088.35735181
  ---------------------------------------------------
  free energy    TOTEN  =      -280.72886153 eV

  energy without entropy =     -280.72886153  energy(sigma->0) =     -280.72886153
  exchange ACFDT corr.  =        -8.30753876  see jH, gK, PRB 81, 115126


--------------------------------------------------------------------------------------------------------




--------------------------------------- Iteration      1(   9)  ---------------------------------------


    POTLOK:  cpu time    0.8569: real time    0.8591
    SETDIJ:  cpu time    0.3320: real time    0.3319
    TRIAL :  cpu time15271.3724: real time15299.0691
    CORREC:  cpu time    0.0020: real time    0.0030
    CHARGE:  cpu time    1.1958: real time    1.1980
    --------------------------------------------
      LOOP:  cpu time15273.7610: real time15301.4673

 eigenvalue-minimisations  :     0
 total energy-change (2. order) :-0.1061216E+01  (-0.1498515E+02)
 number of electron     388.0000012 magnetization 
 augmentation part       -1.3883276 magnetization 

 Free energy of the ion-electron system (eV)
  ---------------------------------------------------
  alpha Z        PSCENC =      1398.37695978
  Ewald energy   TEWEN  =    -15345.76116035
  -Hartree energ DENC   =     -9978.04412957
  -exchange      EXHF   =       763.78188764
  -V(xc)+E(xc)   XCENC  =       509.74196995
  PAW double counting   =     34739.64303217   -34406.37535894
  entropy T*S    EENTRO =        -0.00000000
  eigenvalues    EBANDS =     -4051.51063016
  atomic energy  EATOM  =     26088.35735181
  ---------------------------------------------------
  free energy    TOTEN  =      -281.79007766 eV

  energy without entropy =     -281.79007766  energy(sigma->0) =     -281.79007766
  exchange ACFDT corr.  =        -4.51139007  see jH, gK, PRB 81, 115126


--------------------------------------------------------------------------------------------------------




--------------------------------------- Iteration      1(  10)  ---------------------------------------


    POTLOK:  cpu time    0.8569: real time    0.8585
    SETDIJ:  cpu time    0.3319: real time    0.3324
    TRIAL :  cpu time15235.6428: real time15263.0300
    CORREC:  cpu time    0.0030: real time    0.0031
    CHARGE:  cpu time    1.1908: real time    1.1931
    --------------------------------------------
      LOOP:  cpu time15238.0275: real time15265.4205

 eigenvalue-minimisations  :     0
 total energy-change (2. order) : 0.7144837E+00  (-0.1622491E+02)
 number of electron     388.0000012 magnetization 
 augmentation part       -1.3838359 magnetization 

 Free energy of the ion-electron system (eV)
  ---------------------------------------------------
  alpha Z        PSCENC =      1398.37695978
  Ewald energy   TEWEN  =    -15345.76116035
  -Hartree energ DENC   =     -9982.06695674
  -exchange      EXHF   =       763.75287606
  -V(xc)+E(xc)   XCENC  =       509.72571356
  PAW double counting   =     34687.39587461   -34354.16624655
  entropy T*S    EENTRO =        -0.00000000
  eigenvalues    EBANDS =     -4046.69000619
  atomic energy  EATOM  =     26088.35735181
  ---------------------------------------------------
  free energy    TOTEN  =      -281.07559400 eV

  energy without entropy =     -281.07559399  energy(sigma->0) =     -281.07559399
  exchange ACFDT corr.  =        -6.03277932  see jH, gK, PRB 81, 115126


--------------------------------------------------------------------------------------------------------




--------------------------------------- Iteration      1(  11)  ---------------------------------------


    POTLOK:  cpu time    0.8579: real time    0.8587
    SETDIJ:  cpu time    0.3319: real time    0.3321
    TRIAL :  cpu time15124.5427: real time15157.4287
    CORREC:  cpu time    0.0030: real time    0.0028
    CHARGE:  cpu time    1.1928: real time    1.1953
    --------------------------------------------
      LOOP:  cpu time15126.9294: real time15159.8228

 eigenvalue-minimisations  :     0
 total energy-change (2. order) :-0.8596165E-01  (-0.1573788E+02)
 number of electron     388.0000012 magnetization 
 augmentation part       -1.3694669 magnetization 

 Free energy of the ion-electron system (eV)
  ---------------------------------------------------
  alpha Z        PSCENC =      1398.37695978
  Ewald energy   TEWEN  =    -15345.76116035
  -Hartree energ DENC   =     -9984.11432600
  -exchange      EXHF   =       763.74600823
  -V(xc)+E(xc)   XCENC  =       509.73402036
  PAW double counting   =     34618.35095015   -34285.08226178
  entropy T*S    EENTRO =        -0.00000000
  eigenvalues    EBANDS =     -4044.76909784
  atomic energy  EATOM  =     26088.35735181
  ---------------------------------------------------
  free energy    TOTEN  =      -281.16155564 eV

  energy without entropy =     -281.16155564  energy(sigma->0) =     -281.16155564
  exchange ACFDT corr.  =        -3.88015337  see jH, gK, PRB 81, 115126


--------------------------------------------------------------------------------------------------------




--------------------------------------- Iteration      1(  12)  ---------------------------------------


    POTLOK:  cpu time    0.8639: real time    0.8663
    SETDIJ:  cpu time    0.3329: real time    0.3321
    TRIAL :  cpu time15193.6982: real time15222.4136
    CORREC:  cpu time    0.0020: real time    0.0026
    CHARGE:  cpu time    1.1928: real time    1.1948
    --------------------------------------------
      LOOP:  cpu time15196.0918: real time15224.8220

 eigenvalue-minimisations  :     0
 total energy-change (2. order) :-0.4274368E+00  (-0.1474404E+02)
 number of electron     388.0000012 magnetization 
 augmentation part       -1.3961719 magnetization 

 Free energy of the ion-electron system (eV)
  ---------------------------------------------------
  alpha Z        PSCENC =      1398.37695978
  Ewald energy   TEWEN  =    -15345.76116035
  -Hartree energ DENC   =     -9983.95527303
  -exchange      EXHF   =       763.79031147
  -V(xc)+E(xc)   XCENC  =       509.75816325
  PAW double counting   =     34601.90923274   -34268.62614272
  entropy T*S    EENTRO =        -0.00000000
  eigenvalues    EBANDS =     -4045.43843537
  atomic energy  EATOM  =     26088.35735181
  ---------------------------------------------------
  free energy    TOTEN  =      -281.58899240 eV

  energy without entropy =     -281.58899240  energy(sigma->0) =     -281.58899240
  exchange ACFDT corr.  =        -3.60866511  see jH, gK, PRB 81, 115126


--------------------------------------------------------------------------------------------------------




--------------------------------------- Iteration      1(  13)  ---------------------------------------


    POTLOK:  cpu time    0.8569: real time    0.8585
    SETDIJ:  cpu time    0.3320: real time    0.3318
    TRIAL :  cpu time15267.6460: real time15293.8490
    CORREC:  cpu time    0.0020: real time    0.0024
    CHARGE:  cpu time    1.1938: real time    1.1952
    --------------------------------------------
      LOOP:  cpu time15270.0316: real time15296.2453

 eigenvalue-minimisations  :     0
 total energy-change (2. order) :-0.1539626E+00  (-0.1437151E+02)
 number of electron     388.0000012 magnetization 
 augmentation part       -1.3836879 magnetization 

 Free energy of the ion-electron system (eV)
  ---------------------------------------------------
  alpha Z        PSCENC =      1398.37695978
  Ewald energy   TEWEN  =    -15345.76116035
  -Hartree energ DENC   =     -9980.98172644
  -exchange      EXHF   =       763.76743191
  -V(xc)+E(xc)   XCENC  =       509.71236519
  PAW double counting   =     34616.27276722   -34283.03278390
  entropy T*S    EENTRO =        -0.00000000
  eigenvalues    EBANDS =     -4048.45416019
  atomic energy  EATOM  =     26088.35735181
  ---------------------------------------------------
  free energy    TOTEN  =      -281.74295496 eV

  energy without entropy =     -281.74295496  energy(sigma->0) =     -281.74295496
  exchange ACFDT corr.  =        -2.96535931  see jH, gK, PRB 81, 115126


--------------------------------------------------------------------------------------------------------




--------------------------------------- Iteration      1(  14)  ---------------------------------------


    POTLOK:  cpu time    0.8569: real time    0.8589
    SETDIJ:  cpu time    0.3329: real time    0.3323
    TRIAL :  cpu time15145.7255: real time15171.1170
    CORREC:  cpu time    0.0030: real time    0.0027
    CHARGE:  cpu time    1.1908: real time    1.1930
    --------------------------------------------
      LOOP:  cpu time15148.1101: real time15173.5070

 eigenvalue-minimisations  :     0
 total energy-change (2. order) :-0.2824305E-01  (-0.1423443E+02)
 number of electron     388.0000012 magnetization 
 augmentation part       -1.3888204 magnetization 

 Free energy of the ion-electron system (eV)
  ---------------------------------------------------
  alpha Z        PSCENC =      1398.37695978
  Ewald energy   TEWEN  =    -15345.76116035
  -Hartree energ DENC   =     -9982.55479168
  -exchange      EXHF   =       763.78209478
  -V(xc)+E(xc)   XCENC  =       509.72893360
  PAW double counting   =     34613.09833656   -34279.84100651
  entropy T*S    EENTRO =        -0.00000000
  eigenvalues    EBANDS =     -4046.95791601
  atomic energy  EATOM  =     26088.35735181
  ---------------------------------------------------
  free energy    TOTEN  =      -281.77119801 eV

  energy without entropy =     -281.77119801  energy(sigma->0) =     -281.77119801
  exchange ACFDT corr.  =        -3.08804810  see jH, gK, PRB 81, 115126


--------------------------------------------------------------------------------------------------------




--------------------------------------- Iteration      1(  15)  ---------------------------------------


    POTLOK:  cpu time    0.8569: real time    0.8591
    SETDIJ:  cpu time    0.3319: real time    0.3316
    TRIAL :  cpu time15242.4988: real time15270.1892
    CORREC:  cpu time    0.0040: real time    0.0038
    CHARGE:  cpu time    1.1868: real time    1.1894
    --------------------------------------------
      LOOP:  cpu time15244.8804: real time15272.5764

 eigenvalue-minimisations  :     0
 total energy-change (2. order) :-0.7313855E-01  (-0.1401540E+02)
 number of electron     388.0000012 magnetization 
 augmentation part       -1.3828581 magnetization 

 Free energy of the ion-electron system (eV)
  ---------------------------------------------------
  alpha Z        PSCENC =      1398.37695978
  Ewald energy   TEWEN  =    -15345.76116035
  -Hartree energ DENC   =     -9982.20228992
  -exchange      EXHF   =       763.77208179
  -V(xc)+E(xc)   XCENC  =       509.72220048
  PAW double counting   =     34585.36906014   -34252.10056952
  entropy T*S    EENTRO =        -0.00000000
  eigenvalues    EBANDS =     -4047.37797077
  atomic energy  EATOM  =     26088.35735181
  ---------------------------------------------------
  free energy    TOTEN  =      -281.84433656 eV

  energy without entropy =     -281.84433656  energy(sigma->0) =     -281.84433656
  exchange ACFDT corr.  =        -3.01512917  see jH, gK, PRB 81, 115126


--------------------------------------------------------------------------------------------------------




--------------------------------------- Iteration      1(  16)  ---------------------------------------


    POTLOK:  cpu time    0.8569: real time    0.8584
    SETDIJ:  cpu time    0.3319: real time    0.3319
    TRIAL :  cpu time15075.3222: real time15101.8936
    CORREC:  cpu time    0.0020: real time    0.0027
    CHARGE:  cpu time    1.1908: real time    1.1926
    --------------------------------------------
      LOOP:  cpu time15077.7058: real time15104.2826

 eigenvalue-minimisations  :     0
 total energy-change (2. order) :-0.8894015E-01  (-0.1376267E+02)
 number of electron     388.0000012 magnetization 
 augmentation part       -1.3923699 magnetization 

 Free energy of the ion-electron system (eV)
  ---------------------------------------------------
  alpha Z        PSCENC =      1398.37695978
  Ewald energy   TEWEN  =    -15345.76116035
  -Hartree energ DENC   =     -9982.27524409
  -exchange      EXHF   =       763.78344439
  -V(xc)+E(xc)   XCENC  =       509.72884140
  PAW double counting   =     34586.56685039   -34253.29889626
  entropy T*S    EENTRO =        -0.00000000
  eigenvalues    EBANDS =     -4047.41142378
  atomic energy  EATOM  =     26088.35735181
  ---------------------------------------------------
  free energy    TOTEN  =      -281.93327671 eV

  energy without entropy =     -281.93327671  energy(sigma->0) =     -281.93327671
  exchange ACFDT corr.  =        -3.07865696  see jH, gK, PRB 81, 115126


--------------------------------------------------------------------------------------------------------




--------------------------------------- Iteration      1(  17)  ---------------------------------------


    POTLOK:  cpu time    0.8579: real time    0.8588
    SETDIJ:  cpu time    0.3309: real time    0.3319
    TRIAL :  cpu time15143.8898: real time15170.8975
    CORREC:  cpu time    0.0030: real time    0.0026
[...]
    106      -6.3200      2.00000
    107      -6.2057      2.00000
    108      -6.0464      2.00000
    109      -6.0045      2.00000
    110      -5.9497      2.00000
    111      -5.7554      2.00000
    112      -5.7200      2.00000
    113      -5.4317      2.00000
    114      -5.4201      2.00000
    115      -5.3277      2.00000
    116      -5.3098      2.00000
    117      -5.2566      2.00000
    118      -5.2551      2.00000
    119      -5.2391      2.00000
    120      -5.2209      2.00000
    121      -5.2090      2.00000
    122      -5.1628      2.00000
    123      -5.0257      2.00000
    124      -4.9119      2.00000
    125      -4.8107      2.00000
    126      -4.6928      2.00000
    127      -4.6048      2.00000
    128      -4.4511      2.00000
    129      -4.4028      2.00000
    130      -4.3668      2.00000
    131      -4.0381      2.00000
    132      -4.0298      2.00000
    133      -3.6130      2.00000
    134      -3.5237      2.00000
    135      -3.2914      2.00000
    136      -3.2028      2.00000
    137      -3.0092      2.00000
    138      -2.9660      2.00000
    139      -2.8181      2.00000
    140      -2.7535      2.00000
    141      -0.5793      2.00000
    142      -0.5432      2.00000
    143      -0.4652      2.00000
    144      -0.4354      2.00000
    145      -0.3116      2.00000
    146      -0.2674      2.00000
    147      -0.0152      2.00000
    148       0.0957      2.00000
    149       0.1042      2.00000
    150       0.1673      2.00000
    151       0.2073      2.00000
    152       0.3070      2.00000
    153       0.3100      2.00000
    154       0.3668      2.00000
    155       0.5903      2.00000
    156       0.7162      2.00000
    157       0.8374      2.00000
    158       0.8601      2.00000
    159       0.9080      2.00000
    160       1.0740      2.00000
    161       1.2018      2.00000
    162       1.2091      2.00000
    163       1.3521      2.00000
    164       1.3863      2.00000
    165       1.3958      2.00000
    166       1.5593      2.00000
    167       1.6900      2.00000
    168       1.8223      2.00000
    169       1.8543      2.00000
    170       1.9511      2.00000
    171       2.0357      2.00000
    172       2.1098      2.00000
    173       2.1826      2.00000
    174       2.3558      2.00000
    175       2.4042      2.00000
    176       2.4190      2.00000
    177       2.6244      2.00000
    178       2.6710      2.00000
    179       2.9499      2.00000
    180       3.1148      2.00000
    181       3.1406      2.00000
    182       3.2199      2.00000
    183       3.3175      2.00000
    184       3.4384      2.00000
    185       3.6783      2.00000
    186       4.0359      2.00000
    187       4.2453      2.00000
    188       4.4261      2.00000
    189       6.3115      2.00000
    190       6.3439      2.00000
    191       6.7059      2.00000
    192       7.0167      2.00000
    193       7.1003      2.00000
    194       7.2521      2.00000
    195      -2.5530      0.55617
    196      -2.2732      0.00000
    197      -2.2702      0.00000
    198      -2.2516      0.00000
    199      -2.0538      0.00000
    200      -1.1927      0.00000
    201      -1.1665      0.00000
    202      -1.1585      0.00000
    203      -0.7601      0.00000
    204       0.0966      0.00000
    205       0.2523      0.00000
    206       1.7362      0.00000
    207       2.1010      0.00000
    208       2.3791      0.00000
    209       2.3864      0.00000
    210       3.2233      0.00000
    211       4.2536      0.00000
    212       5.2620      0.00000
    213       6.5462      0.00000
    214       6.6684      0.00000
    215       6.9814      0.00000
    216       7.1042      0.00000
    217       7.4697      0.00000
    218       7.5538      0.00000
    219       7.7780      0.00000
    220       8.1251      0.00000
    221       8.2160      0.00000
    222       8.9333      0.00000
    223       8.9487      0.00000
    224       9.1348      0.00000
    225       9.1931      0.00000
    226       9.2852      0.00000
    227       9.3077      0.00000
    228       9.3577      0.00000
    229       9.7274      0.00000
    230      10.2395      0.00000
    231      10.7555      0.00000
    232      11.0681      0.00000


--------------------------------------------------------------------------------------------------------


 soft charge-density along one line, spin component           1
         0         1         2         3         4         5         6         7         8         9
 total charge-density along one line
 
 pseudopotential strength for first ion, spin component:           1
 15.281   0.000  -4.041  -0.000   0.000   0.000  -0.016  -0.000   0.113   0.000  -0.001  -0.000   0.022   0.000  -0.159  -0.000
 -4.041   0.000   1.071  -0.000  -0.000  -0.000   0.004   0.000  -0.028  -0.000   0.000   0.000  -0.006  -0.000   0.040   0.000
  0.000  -0.000  -0.000   0.000   0.821   0.000  -0.000   0.000  -0.000   0.000  -0.785   0.000   0.000  -0.000   0.000  -0.000
 -0.016   0.000   0.004  -0.000  -0.000  -0.000   0.822   0.000  -0.000  -0.000   0.000   0.000  -0.787  -0.000   0.000   0.000
  0.113  -0.000  -0.028   0.000  -0.000  -0.000  -0.000   0.000   0.829   0.000   0.000   0.000   0.000  -0.000  -0.796  -0.000
 -0.001   0.000   0.000  -0.000  -0.785  -0.000   0.000  -0.000   0.000  -0.000   0.599   0.000  -0.001   0.000  -0.000   0.000
  0.022  -0.000  -0.006   0.000   0.000   0.000  -0.787   0.000   0.000   0.000  -0.001  -0.000   0.602  -0.000  -0.000  -0.000
 -0.159   0.000   0.040  -0.000   0.000   0.000   0.000  -0.000  -0.796   0.000  -0.000  -0.000  -0.000   0.000   0.614  -0.000
 -0.000  -0.000   0.000   0.000   0.051  -0.000   0.000   0.000   0.000  -0.000  -0.067   0.000  -0.000  -0.000  -0.000   0.000
 -0.000   0.000   0.000  -0.000  -0.007   0.000   0.000  -0.000   0.000   0.000   0.009  -0.000  -0.000   0.000  -0.000  -0.000
 -0.002   0.000   0.000  -0.000  -0.000   0.000  -0.008   0.000  -0.029   0.000   0.000  -0.000   0.011  -0.000   0.038  -0.000
 -0.000   0.000   0.000  -0.000   0.000  -0.000   0.051  -0.000  -0.007   0.000  -0.000   0.000  -0.067   0.000   0.009  -0.000
  0.005   0.000  -0.001  -0.000  -0.000  -0.000  -0.000   0.000   0.050  -0.000   0.000   0.000   0.000  -0.000  -0.067   0.000
 total augmentation occupancy for first ion, spin component:           1
  3.071   2.435   0.000  -0.000   0.000   0.001  -0.000   0.002  -0.000  -0.001   0.002   0.000   0.006
  2.435   2.000   0.003  -0.004   0.024  -0.001   0.001  -0.000  -0.000   0.000  -0.003  -0.002  -0.005
  0.000   0.003   1.999  -0.001  -0.000  -0.008  -0.001  -0.000   0.009  -0.003   0.000   0.000  -0.001
 -0.000  -0.004  -0.001   2.011   0.000  -0.001  -0.000  -0.000   0.000   0.002   0.001   0.009  -0.000
  0.000   0.024  -0.000   0.000   2.013  -0.000  -0.000   0.000   0.001   0.000  -0.005  -0.003   0.008
  0.001  -0.001  -0.008  -0.001  -0.000   0.012   0.000   0.000  -0.001   0.002  -0.000  -0.000   0.000
 -0.000   0.001  -0.001  -0.000  -0.000   0.000   0.005  -0.001  -0.000  -0.001  -0.002  -0.001  -0.001
  0.002  -0.000  -0.000  -0.000   0.000   0.000  -0.001   0.005  -0.000  -0.000   0.000   0.001  -0.000
 -0.000  -0.000   0.009   0.000   0.001  -0.001  -0.000  -0.000   0.003  -0.001   0.000  -0.000  -0.000
 -0.001   0.000  -0.003   0.002   0.000   0.002  -0.001  -0.000  -0.001   0.003   0.001   0.000   0.000
  0.002  -0.003   0.000   0.001  -0.005  -0.000  -0.002   0.000   0.000   0.001   0.005   0.001   0.002
  0.000  -0.002   0.000   0.009  -0.003  -0.000  -0.001   0.001  -0.000   0.000   0.001   0.003  -0.000
  0.006  -0.005  -0.001  -0.000   0.008   0.000  -0.001  -0.000  -0.000   0.000   0.002  -0.000   0.007


------------------------ aborting loop because EDIFF is reached ----------------------------------------


    FORLOC:  cpu time    0.1210: real time    0.1203
    FORHF :  cpu time23384.8130: real time23430.9754
    FORNL :  cpu time   20.1909: real time   20.2229
    FORCOR:  cpu time    1.2568: real time    1.2576
    OFIELD:  cpu time    0.0010: real time    0.0014

 VOLUME and BASIS-vectors are now :
 -----------------------------------------------------------------------------
  energy-cutoff  :      500.00
  volume of cell :     1441.25
      direct lattice vectors                 reciprocal lattice vectors
    19.572162628  0.000000000  0.000000000     0.051092974  0.000000000  0.000000000
     0.000000000  7.160604000  0.000000000     0.000000000  0.139653024 -0.018854176
     0.000000000  1.388376246 10.283713099     0.000000000  0.000000000  0.097241141

  length of vectors
    19.572162628  7.160604000 10.377010345     0.051092974  0.140920002  0.097241141


 FORCES acting on ions:
    Electron-Ion                     Ewald-Force                    Non-Local-Force
 -----------------------------------------------------------------------------------------------
   -.311E+02 0.395E+01 0.128E+02   0.497E+02 -.429E+01 -.152E+02   0.164E+00 0.924E-01 -.560E-01
   0.311E+02 0.395E+01 0.128E+02   -.497E+02 -.429E+01 -.152E+02   -.164E+00 0.924E-01 -.560E-01
   -.686E+02 -.435E+01 -.176E+02   0.497E+02 0.429E+01 0.152E+02   0.164E+00 -.924E-01 0.560E-01
   0.686E+02 -.434E+01 -.176E+02   -.497E+02 0.429E+01 0.152E+02   -.164E+00 -.924E-01 0.560E-01
   -.295E+03 0.131E+03 0.204E+03   0.273E+03 -.128E+03 -.197E+03   -.545E+00 0.461E-01 0.336E+00
   0.290E+03 -.130E+03 0.198E+03   -.268E+03 0.126E+03 -.190E+03   0.557E+00 -.649E-01 0.399E+00
   0.246E+03 0.122E+03 -.182E+03   -.268E+03 -.126E+03 0.190E+03   0.557E+00 0.649E-01 -.399E+00
   0.295E+03 0.131E+03 0.204E+03   -.273E+03 -.128E+03 -.197E+03   0.545E+00 0.461E-01 0.336E+00
   -.170E+03 -.182E+01 0.396E+03   0.187E+03 0.192E+01 -.411E+03   -.437E+00 -.781E-02 0.882E+00
   0.204E+03 0.194E+01 -.429E+03   -.187E+03 -.192E+01 0.411E+03   0.437E+00 0.781E-02 -.882E+00
   -.251E+03 -.124E+03 -.189E+03   0.273E+03 0.128E+03 0.197E+03   -.545E+00 -.461E-01 -.336E+00
   0.170E+03 -.182E+01 0.396E+03   -.187E+03 0.192E+01 -.411E+03   0.437E+00 -.781E-02 0.882E+00
   0.251E+03 -.124E+03 -.189E+03   -.273E+03 0.128E+03 0.197E+03   0.545E+00 -.461E-01 -.336E+00
   -.204E+03 0.193E+01 -.429E+03   0.187E+03 -.192E+01 0.411E+03   -.437E+00 0.781E-02 -.882E+00
   -.290E+03 -.130E+03 0.198E+03   0.268E+03 0.126E+03 -.190E+03   -.557E+00 -.649E-01 0.399E+00
   -.246E+03 0.122E+03 -.182E+03   0.268E+03 -.126E+03 0.190E+03   -.557E+00 0.649E-01 -.399E+00
   -.170E+03 -.594E+00 -.809E+02   0.168E+03 0.545E+00 0.802E+02   -.774E+00 0.291E-01 -.247E+01
   -.163E+03 0.564E+00 0.753E+02   0.168E+03 -.545E+00 -.802E+02   -.774E+00 -.291E-01 0.247E+01
   0.170E+03 -.597E+00 -.809E+02   -.168E+03 0.545E+00 0.802E+02   0.774E+00 0.291E-01 -.247E+01
   0.163E+03 0.561E+00 0.753E+02   -.168E+03 -.545E+00 -.802E+02   0.774E+00 -.291E-01 0.247E+01
   -.993E+00 0.136E+00 -.300E+03   0.972E+00 -.133E+00 0.293E+03   -.102E-01 0.614E-02 -.169E+01
   -.207E+03 -.121E+02 -.219E+03   0.231E+03 0.121E+02 0.228E+03   -.146E+01 -.722E-01 -.890E+00
   0.990E+00 0.138E+00 -.300E+03   -.972E+00 -.133E+00 0.293E+03   0.102E-01 0.614E-02 -.169E+01
   0.293E+03 -.108E+03 0.124E+03   -.316E+03 0.111E+03 -.128E+03   0.135E+01 -.803E+00 0.372E+00
   0.126E+03 0.241E+01 -.160E+03   -.111E+03 -.234E+01 0.157E+03   0.500E+00 0.104E-01 -.127E+01
   -.287E+03 0.108E+03 0.130E+03   0.310E+03 -.111E+03 -.134E+03   -.135E+01 0.808E+00 0.392E+00
   -.126E+03 0.241E+01 -.160E+03   0.111E+03 -.234E+01 0.157E+03   -.500E+00 0.104E-01 -.127E+01
   -.660E+01 0.774E+00 0.388E+03   0.669E+01 -.840E+00 -.377E+03   -.144E+00 0.747E-01 0.181E+01
   -.900E+00 -.134E+00 0.281E+03   0.972E+00 0.133E+00 -.293E+03   -.102E-01 -.614E-02 0.169E+01
   -.952E+02 -.223E+01 0.151E+03   0.111E+03 0.234E+01 -.157E+03   -.500E+00 -.104E-01 0.127E+01
   0.207E+03 -.121E+02 -.219E+03   -.231E+03 0.121E+02 0.228E+03   0.146E+01 -.722E-01 -.890E+00
   0.337E+03 0.112E+03 -.132E+03   -.316E+03 -.111E+03 0.128E+03   0.135E+01 0.803E+00 -.372E+00
   0.904E+00 -.132E+00 0.281E+03   -.972E+00 0.133E+00 -.293E+03   0.102E-01 -.614E-02 0.169E+01
   -.337E+03 0.112E+03 -.132E+03   0.316E+03 -.111E+03 0.128E+03   -.135E+01 0.803E+00 -.372E+00
   0.252E+03 0.117E+02 0.235E+03   -.231E+03 -.121E+02 -.228E+03   0.146E+01 0.722E-01 0.890E+00
   -.252E+03 0.117E+02 0.235E+03   0.231E+03 -.121E+02 -.228E+03   -.146E+01 0.722E-01 0.890E+00
   0.952E+02 -.223E+01 0.151E+03   -.111E+03 0.234E+01 -.157E+03   0.500E+00 -.104E-01 0.127E+01
   0.645E+01 -.730E+00 -.362E+03   -.669E+01 0.839E+00 0.377E+03   0.144E+00 -.747E-01 -.181E+01
   -.331E+03 -.112E+03 -.138E+03   0.310E+03 0.111E+03 0.134E+03   -.135E+01 -.808E+00 -.392E+00
   0.190E+03 0.112E+02 -.174E+03   -.212E+03 -.111E+02 0.182E+03   0.146E+01 0.446E-01 -.102E+01
   0.331E+03 -.112E+03 -.138E+03   -.310E+03 0.111E+03 0.134E+03   0.135E+01 -.808E+00 -.392E+00
   0.659E+01 0.775E+00 0.388E+03   -.669E+01 -.840E+00 -.377E+03   0.144E+00 0.747E-01 0.181E+01
   -.293E+03 -.108E+03 0.124E+03   0.316E+03 0.111E+03 -.128E+03   -.135E+01 -.803E+00 0.372E+00
   -.232E+03 -.109E+02 0.188E+03   0.212E+03 0.111E+02 -.182E+03   -.146E+01 -.446E-01 0.102E+01
   0.232E+03 -.109E+02 0.188E+03   -.212E+03 0.111E+02 -.182E+03   0.146E+01 -.446E-01 0.102E+01
   -.644E+01 -.729E+00 -.362E+03   0.669E+01 0.840E+00 0.377E+03   -.144E+00 -.747E-01 -.181E+01
   -.190E+03 0.112E+02 -.174E+03   0.212E+03 -.111E+02 0.182E+03   -.146E+01 0.446E-01 -.102E+01
   0.287E+03 0.108E+03 0.130E+03   -.310E+03 -.111E+03 -.134E+03   0.135E+01 0.808E+00 0.392E+00
 -----------------------------------------------------------------------------------------------
   -.902E-02 -.453E+00 -.111E+01   -.853E-12 -.171E-12 0.483E-12   0.222E-15 0.000E+00 -.111E-15
 
 
 POSITION                                       TOTAL-FORCE (eV/Angst)
 -----------------------------------------------------------------------------------
      7.93068      6.73267      9.09697         0.001763     -0.054998     -0.088939
      1.85540      3.15237      9.09697        -0.001763     -0.054998     -0.088939
     17.71676      5.39661      1.18674         0.001763      0.054998      0.088939
     11.64148      1.81631      1.18674        -0.001763      0.054998      0.088939
     16.19958      1.76817      5.95167        -0.468351     -0.977693     -0.007887
     13.15797      1.07211      5.95660         0.512747      0.951211     -0.035682
      3.37189      3.89657      4.32711         0.512747     -0.951211      0.035682
     13.15866      5.34847      5.95167         0.468351     -0.977693     -0.007887
      6.46128      1.76834      1.79542         0.235186      0.044655      0.593184
     13.11088      6.78064      8.48829        -0.235186     -0.044655     -0.593184
      6.41350      3.20051      4.33205        -0.468351      0.977693      0.007887
      3.32480      5.34864      1.79542        -0.235186      0.044655      0.593184
      3.37258      6.78081      4.33205         0.468351      0.977693      0.007887
     16.24736      3.20034      8.48829         0.235186     -0.044655     -0.593184
     16.20027      4.65241      5.95660        -0.512747      0.951211     -0.035682
      6.41419      7.47687      4.32711        -0.512747     -0.951211      0.035682
     14.92015      6.78842      6.92361         0.774079     -0.003673     -0.574248
      5.13407      5.34086      3.36010         0.774079      0.003673      0.574248
     14.43809      3.20812      6.92361        -0.774079     -0.003673     -0.574248
      4.65201      1.76056      3.36010        -0.774079      0.003673      0.574248
     14.68075      1.40615      9.83560         0.013638      0.008512      0.145723
      8.10217      1.75651      5.70986        -0.311554      0.065865     -0.137633
     14.67750      4.98645      9.83560        -0.013638      0.008512      0.145723
      1.55466      7.13240      2.47606         0.103971      0.256238      0.167355
     11.71533      5.38457      0.58884        -0.090106     -0.011216     -0.020826
      8.22303      7.13289      2.45774        -0.113642     -0.256594      0.124077
     17.64292      1.80427      0.58884         0.090106     -0.011216     -0.020826
     14.68245      1.40979      3.79617         0.012337     -0.004790      0.203298
      4.89467      3.56253      0.44811         0.013638     -0.008512     -0.145723
      7.85683      3.16441      9.69488         0.090106      0.011216      0.020826
      1.68391      5.33681      5.70986         0.311554      0.065865     -0.137633
     11.34074      4.99688      7.80765         0.103971     -0.256238     -0.167355
      4.89142      7.14283      0.44811        -0.013638     -0.008512     -0.145723
     18.01751      1.41658      7.80765        -0.103971     -0.256238     -0.167355
     11.46999      6.79247      4.57386         0.311554     -0.065865      0.137633
     17.88825      3.21217      4.57386        -0.311554     -0.065865      0.137633
      1.92925      6.74471      9.69488        -0.090106      0.011216      0.020826
      4.88971      7.13919      6.48754        -0.012337      0.004790     -0.203298
     18.00911      4.99639      7.82598        -0.113642      0.256594     -0.124077
      1.97687      1.76145      5.48648         0.300859     -0.033991     -0.319732
     11.34913      1.41609      7.82598         0.113642      0.256594     -0.124077
     14.67579      4.99009      3.79617        -0.012337     -0.004790      0.203298
      8.23143      3.55210      2.47606        -0.103971      0.256238      0.167355
     17.59529      6.78753      4.79723        -0.300859      0.033991      0.319732
     11.76295      3.20723      4.79723         0.300859      0.033991      0.319732
      4.89637      3.55889      6.48754         0.012337      0.004790     -0.203298
      7.80921      5.34175      5.48648        -0.300859     -0.033991     -0.319732
      1.56305      3.55259      2.45774         0.113642     -0.256594      0.124077
 -----------------------------------------------------------------------------------
    total drift:                               -0.009018     -0.453266     -1.106932


--------------------------------------------------------------------------------------------------------



  FREE ENERGIE OF THE ION-ELECTRON SYSTEM (eV)
  ---------------------------------------------------
  free  energy   TOTEN  =      -282.38419911 eV

  energy  without entropy=     -282.38419911  energy(sigma->0) =     -282.38419911
 


--------------------------------------------------------------------------------------------------------


    POTLOK:  cpu time    1.1888: real time    1.1900


--------------------------------------------------------------------------------------------------------


     LOOP+:  cpu time**********: real time**********
    4ORBIT:  cpu time    0.0000: real time    0.0000

 total amount of memory used by VASP MPI-rank0   812582. kBytes
=======================================================================

   base      :      30000. kBytes
   nonlr-proj:      23689. kBytes
   fftplans  :      20048. kBytes
   grid      :      29859. kBytes
   one-center:        124. kBytes
   HF        :        259. kBytes
   wavefun   :     708603. kBytes
 
  
  
 General timing and accounting informations for this job:
 ========================================================
  
                  Total CPU time used (sec):   950983.750
                            User time (sec):   881957.309
                          System time (sec):    69026.437
                         Elapsed time (sec):   952687.094
  
                   Maximum memory used (kb):     1292400.
                   Average memory used (kb):           0.
  
                          Minor page faults:      4063734
                          Major page faults:            0
                 Voluntary context switches:        13700
