<?xml version="1.0" encoding="ISO-8859-1"?>
<modeling>
 <generator>
  <i name="program" type="string">vasp </i>
  <i name="version" type="string">5.4.4.18Apr17-6-g9f103f2a35  </i>
  <i name="subversion" type="string">(build Aug 03 2021 20:12:39) complex            parallel </i>
  <i name="platform" type="string">LinuxIFC </i>
  <i name="date" type="string">2021 08 18 </i>
  <i name="time" type="string">05:06:59 </i>
 </generator>
 <incar>
  <i type="string" name="SYSTEM"> MoTe2</i>
  <i type="int" name="ISTART">     1</i>
  <i type="string" name="PREC">accurate</i>
  <i type="string" name="ALGO"> Damped</i>
  <i type="int" name="ICHARG">     2</i>
  <i name="EDIFF">      0.00001000</i>
  <i name="EDIFFG">     -0.01000000</i>
  <i name="ENCUT">    500.00000000</i>
  <i type="string" name="LREAL"> Auto</i>
  <i name="TIME">      0.40000000</i>
  <i type="int" name="ISMEAR">     0</i>
  <i name="SIGMA">      0.05000000</i>
  <i type="logical" name="LWAVE"> F  </i>
  <i type="logical" name="LCHARG"> F  </i>
  <v type="int" name="KPOINT_BSE">    -1     0     0     0</v>
  <i type="logical" name="LHFCALC"> T  </i>
  <i type="string" name="GGA"> PE</i>
  <i name="HFSCREEN">      0.20000000</i>
  <i name="AEXX">      0.25000000</i>
 </incar>
 <structure name="primitive_cell" >
  <crystal>
   <varray name="basis" >
    <v>      19.57216263       0.00000000       0.00000000 </v>
    <v>       0.00000000       7.16060400       0.00000000 </v>
    <v>       0.00000000       1.38837625      10.28371310 </v>
   </varray>
   <i name="volume">   1441.24702706 </i>
   <varray name="rec_basis" >
    <v>       0.05109297       0.00000000       0.00000000 </v>
    <v>       0.00000000       0.13965302      -0.01885418 </v>
    <v>       0.00000000       0.00000000       0.09724114 </v>
   </varray>
  </crystal>
  <varray name="positions" >
   <v>       0.40520199      -0.23127803      -0.11540001 </v>
   <v>       0.40142899       0.25912997      -0.05725903 </v>
   <v>       0.39899600      -0.35745099      -0.46648798 </v>
   <v>       0.25008300       0.48906903       0.04357500 </v>
   <v>       0.24991700      -0.01093101       0.04357500 </v>
   <v>       0.24983000      -0.12530797      -0.36914400 </v>
   <v>       0.41396401       0.13764700      -0.44476699 </v>
   <v>      -0.42056800      -0.44937698      -0.24077496 </v>
   <v>       0.42013902      -0.05020896       0.23899301 </v>
   <v>      -0.42013902       0.05020900      -0.23899299 </v>
   <v>       0.42056800       0.44937697       0.24077501 </v>
   <v>      -0.40142899      -0.25913004       0.05725900 </v>
   <v>       0.33012598       0.21310298       0.17458900 </v>
   <v>       0.32771999      -0.03741596       0.42077301 </v>
   <v>       0.25016998       0.37469200      -0.36914400 </v>
   <v>      -0.33012601      -0.21310304      -0.17458891 </v>
   <v>       0.26231500      -0.31748496       0.32674001 </v>
   <v>       0.16987399      -0.28689695       0.17458900 </v>
   <v>      -0.40520199       0.23127799       0.11540000 </v>
   <v>      -0.41396396      -0.13764692       0.44476701 </v>
   <v>       0.09857100      -0.24087006      -0.05725903 </v>
   <v>       0.32768500       0.36528399       0.42125301 </v>
   <v>      -0.32768498      -0.36528409      -0.42125303 </v>
   <v>      -0.32772001       0.03741600      -0.42077303 </v>
   <v>       0.17231500      -0.13471601       0.42125301 </v>
   <v>       0.23768500       0.18251499       0.32674001 </v>
   <v>      -0.39899600       0.35745098       0.46648801 </v>
   <v>      -0.25008303      -0.48906904      -0.04357495 </v>
   <v>      -0.24991697       0.01093099      -0.04357495 </v>
   <v>       0.09479800       0.26872201      -0.11540001 </v>
   <v>       0.17228000       0.46258400       0.42077301 </v>
   <v>       0.08603599      -0.36235305      -0.44476699 </v>
   <v>       0.10100399       0.14254899      -0.46648798 </v>
   <v>      -0.23768503      -0.18251501      -0.32674001 </v>
   <v>       0.07986100       0.44979101       0.23899301 </v>
   <v>       0.07943200      -0.05062300       0.24077501 </v>
   <v>      -0.26231497       0.31748499      -0.32674001 </v>
   <v>      -0.25017000      -0.37469200       0.36914400 </v>
   <v>      -0.24983000       0.12530800       0.36914400 </v>
   <v>      -0.16987404       0.28689700      -0.17458891 </v>
   <v>      -0.17228004      -0.46258400      -0.42077303 </v>
   <v>      -0.17231502       0.13471601      -0.42125303 </v>
   <v>      -0.07986103      -0.44979101      -0.23899299 </v>
   <v>      -0.07943205       0.05062298      -0.24077496 </v>
   <v>      -0.09479801      -0.26872201       0.11540000 </v>
   <v>      -0.09857096       0.24087000       0.05725900 </v>
   <v>      -0.10100405      -0.14254898       0.46648801 </v>
   <v>      -0.08603599       0.36235298       0.44476701 </v>
  </varray>
 </structure>
 <varray name="primitive_index" >
  <v type="int" >        1 </v>
  <v type="int" >       30 </v>
  <v type="int" >       47 </v>
  <v type="int" >       29 </v>
  <v type="int" >       33 </v>
  <v type="int" >       38 </v>
  <v type="int" >       22 </v>
  <v type="int" >       32 </v>
  <v type="int" >       26 </v>
  <v type="int" >       41 </v>
  <v type="int" >       43 </v>
  <v type="int" >       25 </v>
  <v type="int" >        9 </v>
  <v type="int" >       16 </v>
  <v type="int" >       46 </v>
  <v type="int" >       10 </v>
  <v type="int" >       18 </v>
  <v type="int" >       12 </v>
  <v type="int" >        4 </v>
  <v type="int" >       35 </v>
  <v type="int" >       37 </v>
  <v type="int" >       11 </v>
  <v type="int" >        8 </v>
  <v type="int" >        6 </v>
  <v type="int" >       13 </v>
  <v type="int" >       20 </v>
  <v type="int" >       45 </v>
  <v type="int" >       23 </v>
  <v type="int" >       21 </v>
  <v type="int" >        2 </v>
  <v type="int" >        7 </v>
  <v type="int" >       31 </v>
  <v type="int" >       40 </v>
  <v type="int" >       17 </v>
  <v type="int" >       48 </v>
  <v type="int" >       24 </v>
  <v type="int" >       19 </v>
  <v type="int" >       42 </v>
  <v type="int" >       28 </v>
  <v type="int" >       14 </v>
  <v type="int" >       15 </v>
  <v type="int" >        5 </v>
  <v type="int" >       39 </v>
  <v type="int" >       34 </v>
  <v type="int" >        3 </v>
  <v type="int" >       27 </v>
  <v type="int" >       44 </v>
  <v type="int" >       36 </v>
 </varray>
 <kpoints>
  <varray name="kpointlist" >
   <v>       0.00000000       0.00000000       0.00000000 </v>
   <v>       0.50000000       0.00000000       0.00000000 </v>
   <v>       0.00000000       0.50000000       0.00000000 </v>
   <v>       0.50000000       0.50000000       0.00000000 </v>
   <v>       0.00000000       0.00000000       0.50000000 </v>
   <v>       0.50000000       0.00000000       0.50000000 </v>
   <v>       0.00000000       0.50000000       0.50000000 </v>
   <v>       0.50000000       0.50000000       0.50000000 </v>
   <v>       0.00000000       0.30000000       0.50000000 </v>
   <v>       0.00000000       0.32000000       0.50000000 </v>
   <v>       0.00000000       0.34000000       0.50000000 </v>
   <v>       0.00000000       0.36000000       0.50000000 </v>
   <v>       0.00000000       0.38000000       0.50000000 </v>
   <v>       0.00000000       0.40000000       0.50000000 </v>
   <v>       0.00000000       0.42000000       0.50000000 </v>
   <v>       0.00000000       0.44000000       0.50000000 </v>
   <v>       0.00000000       0.46000000       0.50000000 </v>
   <v>       0.00000000       0.48000000       0.50000000 </v>
   <v>       0.00000000       0.50000000       0.50000000 </v>
   <v>       0.00000000       0.50000000       0.50000000 </v>
   <v>       0.05000000       0.50000000       0.45000000 </v>
   <v>       0.10000000       0.50000000       0.40000000 </v>
   <v>       0.15000000       0.50000000       0.35000000 </v>
   <v>       0.20000000       0.50000000       0.30000000 </v>
   <v>       0.25000000       0.50000000       0.25000000 </v>
   <v>       0.30000000       0.50000000       0.20000000 </v>
   <v>       0.35000000       0.50000000       0.15000000 </v>
   <v>       0.40000000       0.50000000       0.10000000 </v>
   <v>       0.45000000       0.50000000       0.05000000 </v>
   <v>       0.50000000       0.50000000       0.00000000 </v>
   <v>       0.00000000       0.50000000       0.00000000 </v>
   <v>       0.00000000       0.48000000       0.00000000 </v>
   <v>       0.00000000       0.46000000       0.00000000 </v>
   <v>       0.00000000       0.44000000       0.00000000 </v>
   <v>       0.00000000       0.42000000       0.00000000 </v>
   <v>       0.00000000       0.40000000       0.00000000 </v>
   <v>       0.00000000       0.38000000       0.00000000 </v>
   <v>       0.00000000       0.36000000       0.00000000 </v>
   <v>       0.00000000       0.34000000       0.00000000 </v>
   <v>       0.00000000       0.32000000       0.00000000 </v>
   <v>       0.00000000       0.30000000       0.00000000 </v>
  </varray>
  <varray name="weights" >
   <v>       0.12500000 </v>
   <v>       0.12500000 </v>
   <v>       0.12500000 </v>
   <v>       0.12500000 </v>
   <v>       0.12500000 </v>
   <v>       0.12500000 </v>
   <v>       0.12500000 </v>
   <v>       0.12500000 </v>
   <v>       0.00000000 </v>
   <v>       0.00000000 </v>
   <v>       0.00000000 </v>
   <v>       0.00000000 </v>
   <v>       0.00000000 </v>
   <v>       0.00000000 </v>
   <v>       0.00000000 </v>
   <v>       0.00000000 </v>
   <v>       0.00000000 </v>
   <v>       0.00000000 </v>
   <v>       0.00000000 </v>
   <v>       0.00000000 </v>
   <v>       0.00000000 </v>
   <v>       0.00000000 </v>
   <v>       0.00000000 </v>
   <v>       0.00000000 </v>
   <v>       0.00000000 </v>
   <v>       0.00000000 </v>
   <v>       0.00000000 </v>
   <v>       0.00000000 </v>
   <v>       0.00000000 </v>
   <v>       0.00000000 </v>
   <v>       0.00000000 </v>
   <v>       0.00000000 </v>
   <v>       0.00000000 </v>
   <v>       0.00000000 </v>
   <v>       0.00000000 </v>
   <v>       0.00000000 </v>
   <v>       0.00000000 </v>
   <v>       0.00000000 </v>
   <v>       0.00000000 </v>
   <v>       0.00000000 </v>
   <v>       0.00000000 </v>
  </varray>
 </kpoints>
 <parameters>
  <separator name="general" >
   <i type="string" name="SYSTEM">MoTe2</i>
   <i type="logical" name="LCOMPAT"> F  </i>
  </separator>
  <separator name="electronic" >
   <i type="string" name="PREC">accura</i>
   <i name="ENMAX">    500.00000000</i>
   <i name="ENAUG">    503.85200000</i>
   <i name="EDIFF">      0.00001000</i>
   <i type="int" name="IALGO">    53</i>
   <i type="int" name="IWAVPR">    10</i>
   <i type="int" name="NBANDS">   232</i>
   <i name="NELECT">    388.00000000</i>
   <i type="int" name="TURBO">     0</i>
   <i type="int" name="IRESTART">     0</i>
   <i type="int" name="NREBOOT">     0</i>
   <i type="int" name="NMIN">     0</i>
   <i name="EREF">      0.00000000</i>
   <separator name="electronic smearing" >
    <i type="int" name="ISMEAR">     0</i>
    <i name="SIGMA">      0.05000000</i>
    <i name="KSPACING">      0.50000000</i>
    <i type="logical" name="KGAMMA"> T  </i>
   </separator>
   <separator name="electronic projectors" >
    <i type="logical" name="LREAL"> T  </i>
    <v name="ROPT">     -0.00025000     -0.00025000     -0.00025000     -0.00025000</v>
    <i type="int" name="LMAXPAW">  -100</i>
    <i type="int" name="LMAXMIX">     2</i>
    <i type="logical" name="NLSPLINE"> F  </i>
   </separator>
   <separator name="electronic startup" >
    <i type="int" name="ISTART">     1</i>
    <i type="int" name="ICHARG">     2</i>
    <i type="int" name="INIWAV">     1</i>
   </separator>
   <separator name="electronic spin" >
    <i type="int" name="ISPIN">     1</i>
    <i type="logical" name="LNONCOLLINEAR"> F  </i>
    <v name="MAGMOM">      1.00000000      1.00000000      1.00000000      1.00000000      1.00000000      1.00000000      1.00000000      1.00000000      1.00000000      1.00000000      1.00000000      1.00000000      1.00000000      1.00000000      1.00000000      1.00000000      1.00000000      1.00000000      1.00000000      1.00000000
      1.00000000      1.00000000      1.00000000      1.00000000      1.00000000      1.00000000      1.00000000      1.00000000      1.00000000      1.00000000      1.00000000      1.00000000      1.00000000      1.00000000      1.00000000      1.00000000      1.00000000      1.00000000      1.00000000      1.00000000
      1.00000000      1.00000000      1.00000000      1.00000000      1.00000000      1.00000000      1.00000000      1.00000000</v>
    <i name="NUPDOWN">     -1.00000000</i>
    <i type="logical" name="LSORBIT"> F  </i>
    <v name="SAXIS">      0.00000000      0.00000000      1.00000000</v>
    <i type="logical" name="LSPIRAL"> F  </i>
    <v name="QSPIRAL">      0.00000000      0.00000000      0.00000000</v>
    <i type="logical" name="LZEROZ"> F  </i>
   </separator>
   <separator name="electronic exchange-correlation" >
    <i type="logical" name="LASPH"> F  </i>
    <i type="logical" name="LMETAGGA"> F  </i>
   </separator>
   <separator name="electronic convergence" >
    <i type="int" name="NELM">    60</i>
    <i type="int" name="NELMDL">     0</i>
    <i type="int" name="NELMIN">     2</i>
    <i name="ENINI">    500.00000000</i>
    <separator name="electronic convergence detail" >
     <i type="logical" name="LDIAG"> T  </i>
     <i type="logical" name="LSUBROT"> F  </i>
     <i name="WEIMIN">      0.00000000</i>
     <i name="EBREAK">      0.00000001</i>
     <i name="DEPER">      0.30000000</i>
     <i type="int" name="NRMM">     4</i>
     <i name="TIME">      0.40000000</i>
    </separator>
   </separator>
   <separator name="electronic mixer" >
    <i name="AMIX">      0.40000000</i>
    <i name="BMIX">      1.00000000</i>
    <i name="AMIN">      0.10000000</i>
    <i name="AMIX_MAG">      1.60000000</i>
    <i name="BMIX_MAG">      1.00000000</i>
    <separator name="electronic mixer details" >
     <i type="int" name="IMIX">     4</i>
     <i type="logical" name="MIXFIRST"> F  </i>
     <i type="int" name="MAXMIX">   -45</i>
     <i name="WC">    100.00000000</i>
     <i type="int" name="INIMIX">     1</i>
     <i type="int" name="MIXPRE">     1</i>
     <i type="int" name="MREMOVE">     5</i>
    </separator>
   </separator>
   <separator name="electronic dipolcorrection" >
    <i type="logical" name="LDIPOL"> F  </i>
    <i type="logical" name="LMONO"> F  </i>
    <i type="int" name="IDIPOL">     0</i>
    <i name="EPSILON">      1.00000000</i>
    <v name="DIPOL">   -100.00000000   -100.00000000   -100.00000000</v>
    <i name="EFIELD">      0.00000000</i>
   </separator>
  </separator>
  <separator name="grids" >
   <i type="int" name="NGX">   144</i>
   <i type="int" name="NGY">    54</i>
   <i type="int" name="NGZ">    80</i>
   <i type="int" name="NGXF">   288</i>
   <i type="int" name="NGYF">   108</i>
   <i type="int" name="NGZF">   160</i>
   <i type="logical" name="ADDGRID"> F  </i>
  </separator>
  <separator name="ionic" >
   <i type="int" name="NSW">     0</i>
   <i type="int" name="IBRION">    -1</i>
   <i type="int" name="MDALGO">     0</i>
   <i type="int" name="ISIF">     0</i>
   <i name="PSTRESS">      0.00000000</i>
   <i name="EDIFFG">     -0.01000000</i>
   <i type="int" name="NFREE">     0</i>
   <i name="POTIM">      0.50000000</i>
   <i name="SMASS">     -3.00000000</i>
   <i name="SCALEE">      1.00000000</i>
  </separator>
  <separator name="ionic md" >
   <i name="TEBEG">      0.00010000</i>
   <i name="TEEND">      0.00010000</i>
   <i type="int" name="NBLOCK">     1</i>
   <i type="int" name="KBLOCK">     1</i>
   <i type="int" name="NPACO">   256</i>
   <i name="APACO">     16.00000000</i>
  </separator>
  <separator name="symmetry" >
   <i type="int" name="ISYM">     3</i>
   <i name="SYMPREC">      0.00001000</i>
  </separator>
  <separator name="dos" >
   <i type="int" name="LORBIT">     0</i>
   <v name="RWIGS">     -1.00000000     -1.00000000     -1.00000000     -1.00000000</v>
   <i type="int" name="NEDOS">   301</i>
   <i name="EMIN">     10.00000000</i>
   <i name="EMAX">    -10.00000000</i>
   <i name="EFERMI">      0.00000000</i>
  </separator>
  <separator name="writing" >
   <i type="int" name="NWRITE">     2</i>
   <i type="logical" name="LWAVE"> F  </i>
   <i type="logical" name="LDOWNSAMPLE"> F  </i>
   <i type="logical" name="LCHARG"> F  </i>
   <i type="logical" name="LPARD"> F  </i>
   <i type="logical" name="LVTOT"> F  </i>
   <i type="logical" name="LVHAR"> F  </i>
   <i type="logical" name="LELF"> F  </i>
   <i type="logical" name="LOPTICS"> F  </i>
   <v name="STM">      0.00000000      0.00000000      0.00000000      0.00000000      0.00000000      0.00000000      0.00000000</v>
  </separator>
  <separator name="performance" >
   <i type="int" name="NPAR">     4</i>
   <i type="int" name="NSIM">     4</i>
   <i type="int" name="NBLK">    -1</i>
   <i type="logical" name="LPLANE"> T  </i>
   <i type="logical" name="LSCALAPACK"> T  </i>
   <i type="logical" name="LSCAAWARE"> F  </i>
   <i type="logical" name="LSCALU"> F  </i>
   <i type="logical" name="LASYNC"> F  </i>
   <i type="logical" name="LORBITALREAL"> F  </i>
  </separator>
  <separator name="miscellaneous" >
   <i type="int" name="IDIOT">     3</i>
   <i type="int" name="ISPECIAL">     0</i>
   <i type="logical" name="LMUSIC"> F  </i>
   <v name="POMASS">    132.90000000     92.00000000     32.06600000     79.90400000</v>
   <v name="DARWINR">      0.00000000      0.00000000      0.00000000      0.00000000</v>
   <v name="DARWINV">      1.00000000      1.00000000      1.00000000      1.00000000</v>
   <i type="logical" name="LCORR"> T  </i>
  </separator>
  <i type="logical" name="GGA_COMPAT"> T  </i>
  <i type="logical" name="LBERRY"> F  </i>
  <i type="int" name="ICORELEVEL">     0</i>
  <i type="logical" name="LDAU"> F  </i>
  <i type="int" name="I_CONSTRAINED_M">     0</i>
  <separator name="electronic exchange-correlation" >
   <i type="string" name="GGA">PE</i>
   <i type="int" name="VOSKOWN">     0</i>
   <i type="logical" name="LHFCALC"> T  </i>
   <i type="string" name="PRECFOCK">normal</i>
   <i type="logical" name="LSYMGRAD"> F  </i>
   <i type="logical" name="LHFONE"> F  </i>
   <i type="logical" name="LRHFCALC"> F  </i>
   <i type="logical" name="LTHOMAS"> F  </i>
   <i type="logical" name="LMODELHF"> F  </i>
   <i name="ENCUT4O">     -1.00000000</i>
   <i type="int" name="EXXOEP">     0</i>
   <i type="int" name="FOURORBIT">     0</i>
   <i name="AEXX">      0.25000000</i>
   <i name="HFALPHA">     -1.00000000</i>
   <i name="MCALPHA">      0.00000000</i>
   <i name="ALDAX">      0.75000000</i>
   <i name="AGGAX">      0.75000000</i>
   <i name="ALDAC">      1.00000000</i>
   <i name="AGGAC">      1.00000000</i>
   <i type="int" name="NKREDX">     1</i>
   <i type="int" name="NKREDY">     1</i>
   <i type="int" name="NKREDZ">     1</i>
   <i type="logical" name="SHIFTRED"> F  </i>
   <i type="logical" name="ODDONLY"> F  </i>
   <i type="logical" name="EVENONLY"> F  </i>
   <i type="int" name="LMAXFOCK">     4</i>
   <i type="int" name="NMAXFOCKAE">     1</i>
   <i type="logical" name="LFOCKAEDFT"> F  </i>
   <i name="HFSCREEN">      0.20000000</i>
   <i name="HFSCREENC">      0.20000000</i>
   <i type="int" name="NBANDSGWLOW">     1</i>
  </separator>
  <separator name="vdW DFT" >
   <i type="logical" name="LUSE_VDW"> F  </i>
   <i name="Zab_VDW">     -0.84910000</i>
   <i name="PARAM1">      0.12340000</i>
   <i name="PARAM2">      1.00000000</i>
   <i name="PARAM3">      0.00000000</i>
  </separator>
  <separator name="model GW" >
   <i type="int" name="MODEL_GW">     0</i>
   <i name="MODEL_EPS0">     18.01558784</i>
   <i name="MODEL_ALPHA">      1.00000000</i>
  </separator>
  <separator name="linear response parameters" >
   <i type="logical" name="LEPSILON"> F  </i>
   <i type="logical" name="LRPA"> F  </i>
   <i type="logical" name="LNABLA"> F  </i>
   <i type="logical" name="LVEL"> F  </i>
   <i type="int" name="KINTER">     0</i>
   <i name="CSHIFT">      0.10000000</i>
   <i name="OMEGAMAX">     -1.00000000</i>
   <i name="DEG_THRESHOLD">      0.00200000</i>
   <i name="RTIME">     -0.10000000</i>
   <i name="WPLASMAI">      0.00000000</i>
   <v name="DFIELD">      0.00000000      0.00000000      0.00000000</v>
   <v name="WPLASMA">      0.00000000      0.00000000      0.00000000      0.00000000      0.00000000      0.00000000      0.00000000      0.00000000      0.00000000</v>
  </separator>
  <separator name="orbital magnetization" >
   <i type="logical" name="NUCIND"> F  </i>
   <v name="MAGPOS">      0.00000000      0.00000000      0.00000000</v>
   <i type="logical" name="LNICSALL"> T  </i>
   <i type="logical" name="ORBITALMAG"> F  </i>
   <i type="logical" name="LMAGBLOCH"> F  </i>
   <i type="logical" name="LCHIMAG"> F  </i>
   <i type="logical" name="LGAUGE"> T  </i>
   <i type="int" name="MAGATOM">     0</i>
   <v name="MAGDIPOL">      0.00000000      0.00000000      0.00000000</v>
   <v name="AVECCONST">      0.00000000      0.00000000      0.00000000</v>
  </separator>
  <separator name="response functions" >
   <i type="logical" name="LADDER"> F  </i>
   <i type="logical" name="LRPAFORCE"> F  </i>
   <i type="logical" name="LFXC"> F  </i>
   <i type="logical" name="LHARTREE"> T  </i>
   <i type="int" name="IBSE">     0</i>
   <v type="int" name="KPOINT">    -1     0     0     0</v>
   <i type="logical" name="LTCTE"> F  </i>
   <i type="logical" name="LTETE"> F  </i>
   <i type="logical" name="LTRIPLET"> F  </i>
   <i type="logical" name="LFXCEPS"> F  </i>
   <i type="logical" name="LFXHEG"> F  </i>
   <i type="int" name="NATURALO">     2</i>
   <i type="logical" name="L2ORDER"> F  </i>
   <i type="logical" name="LMP2LT"> F  </i>
   <i type="logical" name="LUSEW"> F  </i>
   <i name="ENCUTGW">     -2.00000000</i>
   <i name="ENCUTGWSOFT">     -2.00000000</i>
   <i name="ENCUTLF">     -1.00000000</i>
   <i type="int" name="LMAXMP2">    -1</i>
   <i name="SCISSOR">      0.00000000</i>
   <i type="int" name="NOMEGA">     0</i>
   <i type="int" name="NOMEGAR">     0</i>
   <i type="int" name="NBANDSGW">    -1</i>
   <i type="int" name="NBANDSO">    -1</i>
   <i type="int" name="NBANDSV">    -1</i>
   <i type="int" name="NELM">     1</i>
   <i type="int" name="NELMHF">     1</i>
   <i type="int" name="DIM">     3</i>
   <i type="int" name="ANTIRES">     0</i>
   <i name="OMEGAMAX">    -30.00000000</i>
   <i name="OMEGAMIN">    -30.00000000</i>
   <i name="OMEGATL">   -200.00000000</i>
   <i type="int" name="OMEGAGRID">   140</i>
   <i name="CSHIFT">     -0.10000000</i>
   <i type="logical" name="SELFENERGY"> F  </i>
   <i type="logical" name="LSPECTRAL"> F  </i>
   <i type="logical" name="LSPECTRALGW"> F  </i>
   <i type="logical" name="LSINGLES"> F  </i>
   <i type="logical" name="LFERMIGW"> F  </i>
   <i type="logical" name="ODDONLYGW"> F  </i>
   <i type="logical" name="EVENONLYGW"> F  </i>
   <i type="int" name="NKREDLFX">     1</i>
   <i type="int" name="NKREDLFY">     1</i>
   <i type="int" name="NKREDLFZ">     1</i>
   <i type="int" name="MAXMEM">  2800</i>
   <i type="int" name="TELESCOPE">     0</i>
   <i type="int" name="TAUPAR">     1</i>
   <i type="int" name="OMEGAPAR">    -1</i>
   <i name="LAMBDA">      1.00000000</i>
  </separator>
  <separator name="External order field" >
   <i name="OFIELD_KAPPA">      0.00000000</i>
   <v name="OFIELD_K">      0.00000000      0.00000000      0.00000000</v>
   <i name="OFIELD_Q6_NEAR">      0.00000000</i>
   <i name="OFIELD_Q6_FAR">      0.00000000</i>
   <i name="OFIELD_A">      0.00000000</i>
  </separator>
 </parameters>
 <atominfo>
  <atoms>      48 </atoms>
  <types>       4 </types>
  <array name="atoms" >
   <dimension dim="1">ion</dimension>
   <field type="string">element</field>
   <field type="int">atomtype</field>
   <set>
    <rc><c>Cs</c><c>   1</c></rc>
    <rc><c>Cs</c><c>   1</c></rc>
    <rc><c>Cs</c><c>   1</c></rc>
    <rc><c>Cs</c><c>   1</c></rc>
    <rc><c>Nb</c><c>   2</c></rc>
    <rc><c>Nb</c><c>   2</c></rc>
    <rc><c>Nb</c><c>   2</c></rc>
    <rc><c>Nb</c><c>   2</c></rc>
    <rc><c>Nb</c><c>   2</c></rc>
    <rc><c>Nb</c><c>   2</c></rc>
    <rc><c>Nb</c><c>   2</c></rc>
    <rc><c>Nb</c><c>   2</c></rc>
    <rc><c>Nb</c><c>   2</c></rc>
    <rc><c>Nb</c><c>   2</c></rc>
    <rc><c>Nb</c><c>   2</c></rc>
    <rc><c>Nb</c><c>   2</c></rc>
    <rc><c>S </c><c>   3</c></rc>
    <rc><c>S </c><c>   3</c></rc>
    <rc><c>S </c><c>   3</c></rc>
    <rc><c>S </c><c>   3</c></rc>
    <rc><c>Br</c><c>   4</c></rc>
    <rc><c>Br</c><c>   4</c></rc>
    <rc><c>Br</c><c>   4</c></rc>
    <rc><c>Br</c><c>   4</c></rc>
    <rc><c>Br</c><c>   4</c></rc>
    <rc><c>Br</c><c>   4</c></rc>
    <rc><c>Br</c><c>   4</c></rc>
    <rc><c>Br</c><c>   4</c></rc>
    <rc><c>Br</c><c>   4</c></rc>
    <rc><c>Br</c><c>   4</c></rc>
    <rc><c>Br</c><c>   4</c></rc>
    <rc><c>Br</c><c>   4</c></rc>
    <rc><c>Br</c><c>   4</c></rc>
    <rc><c>Br</c><c>   4</c></rc>
    <rc><c>Br</c><c>   4</c></rc>
    <rc><c>Br</c><c>   4</c></rc>
    <rc><c>Br</c><c>   4</c></rc>
    <rc><c>Br</c><c>   4</c></rc>
    <rc><c>Br</c><c>   4</c></rc>
    <rc><c>Br</c><c>   4</c></rc>
    <rc><c>Br</c><c>   4</c></rc>
    <rc><c>Br</c><c>   4</c></rc>
    <rc><c>Br</c><c>   4</c></rc>
    <rc><c>Br</c><c>   4</c></rc>
    <rc><c>Br</c><c>   4</c></rc>
    <rc><c>Br</c><c>   4</c></rc>
    <rc><c>Br</c><c>   4</c></rc>
    <rc><c>Br</c><c>   4</c></rc>
   </set>
  </array>
  <array name="atomtypes" >
   <dimension dim="1">type</dimension>
   <field type="int">atomspertype</field>
   <field type="string">element</field>
   <field>mass</field>
   <field>valence</field>
   <field type="string">pseudopotential</field>
   <set>
    <rc><c>   4</c><c>Cs</c><c>    132.90000000</c><c>      9.00000000</c><c>  PAW_PBE Cs_sv 08Apr2002               </c></rc>
    <rc><c>  12</c><c>Nb</c><c>     92.00000000</c><c>     11.00000000</c><c>  PAW_PBE Nb_pv 08Apr2002               </c></rc>
    <rc><c>   4</c><c>S </c><c>     32.06600000</c><c>      6.00000000</c><c>  PAW_PBE S 06Sep2000                   </c></rc>
    <rc><c>  28</c><c>Br</c><c>     79.90400000</c><c>      7.00000000</c><c>  PAW_PBE Br 06Sep2000                  </c></rc>
   </set>
  </array>
 </atominfo>
 <structure name="initialpos" >
  <crystal>
   <varray name="basis" >
    <v>      19.57216263       0.00000000       0.00000000 </v>
    <v>       0.00000000       7.16060400       0.00000000 </v>
    <v>       0.00000000       1.38837625      10.28371310 </v>
   </varray>
   <i name="volume">   1441.24702706 </i>
   <varray name="rec_basis" >
    <v>       0.05109297       0.00000000       0.00000000 </v>
    <v>       0.00000000       0.13965302      -0.01885418 </v>
    <v>       0.00000000       0.00000000       0.09724114 </v>
   </varray>
  </crystal>
  <varray name="positions" >
   <v>       0.40520199       0.76872197       0.88459999 </v>
   <v>       0.09479800       0.26872201       0.88459999 </v>
   <v>       0.90520199       0.73127799       0.11540000 </v>
   <v>       0.59479801       0.23127799       0.11540000 </v>
   <v>       0.82768498       0.13471601       0.57874697 </v>
   <v>       0.67227999       0.03741600       0.57922697 </v>
   <v>       0.17228000       0.46258400       0.42077301 </v>
   <v>       0.67231502       0.63471591       0.57874697 </v>
   <v>       0.33012598       0.21310298       0.17458900 </v>
   <v>       0.66987399       0.78689696       0.82541108 </v>
   <v>       0.32768500       0.36528399       0.42125301 </v>
   <v>       0.16987399       0.71310305       0.17458900 </v>
   <v>       0.17231500       0.86528399       0.42125301 </v>
   <v>       0.83012596       0.28689700       0.82541108 </v>
   <v>       0.82771996       0.53741600       0.57922697 </v>
   <v>       0.32771999       0.96258404       0.42077301 </v>
   <v>       0.76231498       0.81748499       0.67325999 </v>
   <v>       0.26231500       0.68251504       0.32674001 </v>
   <v>       0.73768502       0.31748499       0.67325999 </v>
   <v>       0.23768500       0.18251499       0.32674001 </v>
   <v>       0.75008303       0.01093099       0.95642505 </v>
   <v>       0.41396401       0.13764700       0.55523301 </v>
   <v>       0.74991697       0.51093096       0.95642505 </v>
   <v>       0.07943200       0.94937701       0.24077501 </v>
   <v>       0.59857101       0.74086996       0.05725900 </v>
   <v>       0.42013901       0.94979104       0.23899301 </v>
   <v>       0.90142904       0.24087000       0.05725900 </v>
   <v>       0.75017001       0.12530800       0.36914400 </v>
   <v>       0.25008301       0.48906903       0.04357500 </v>
   <v>       0.40142899       0.25912998       0.94274097 </v>
   <v>       0.08603600       0.63764695       0.55523301 </v>
   <v>       0.57943200       0.55062302       0.75922504 </v>
   <v>       0.24991699       0.98906899       0.04357500 </v>
   <v>       0.92056795       0.05062298       0.75922504 </v>
   <v>       0.58603604       0.86235308       0.44476701 </v>
   <v>       0.91396401       0.36235298       0.44476701 </v>
   <v>       0.09857100       0.75912994       0.94274097 </v>
   <v>       0.24982999       0.87469203       0.63085600 </v>
   <v>       0.92013897       0.55020899       0.76100701 </v>
   <v>       0.10100399       0.14254899       0.53351202 </v>
   <v>       0.57986099       0.05020900       0.76100701 </v>
   <v>       0.74982999       0.62530800       0.36914400 </v>
   <v>       0.42056800       0.44937697       0.24077501 </v>
   <v>       0.89899595       0.85745102       0.46648801 </v>
   <v>       0.60100400       0.35745098       0.46648801 </v>
   <v>       0.25016998       0.37469200       0.63085600 </v>
   <v>       0.39899600       0.64254901       0.53351202 </v>
   <v>       0.07986100       0.44979101       0.23899301 </v>
  </varray>
 </structure>
 <calculation>
  <scstep>
   <time name="total">15241.6615269.40</time>
   <energy>
    <i name="alphaZ">   1398.37695978 </i>
    <i name="ewald"> -15345.76116035 </i>
    <i name="hartreedc"> -10023.38299459 </i>
    <i name="XCdc">    509.10907182 </i>
    <i name="pawpsdc">  31935.35519996 </i>
    <i name="pawaedc"> -31598.82198081 </i>
    <i name="eentropy">     -0.04162836 </i>
    <i name="bandstr">  -4014.85417778 </i>
    <i name="atom">  26088.35735181 </i>
    <i name="e_fr_energy">   -289.59353015 </i>
    <i name="e_wo_entrp">   -289.55190179 </i>
    <i name="e_0_energy">   -289.57271597 </i>
   </energy>
  </scstep>
  <scstep>
   <time name="total">15073.1315101.48</time>
   <energy>
    <i name="e_fr_energy">   -290.26099705 </i>
    <i name="e_wo_entrp">   -290.22010719 </i>
    <i name="e_0_energy">   -290.24055212 </i>
   </energy>
  </scstep>
  <scstep>
   <time name="total">15226.0015252.04</time>
   <energy>
    <i name="e_fr_energy">   -290.65365769 </i>
    <i name="e_wo_entrp">   -290.61615820 </i>
    <i name="e_0_energy">   -290.63490794 </i>
   </energy>
  </scstep>
  <scstep>
   <time name="total">15226.0215253.91</time>
   <energy>
    <i name="e_fr_energy">   -290.46158585 </i>
    <i name="e_wo_entrp">   -290.46157841 </i>
    <i name="e_0_energy">   -290.46158213 </i>
   </energy>
  </scstep>
  <scstep>
   <time name="total">15176.6415204.85</time>
   <energy>
    <i name="e_fr_energy">   -285.30486137 </i>
    <i name="e_wo_entrp">   -285.29481532 </i>
    <i name="e_0_energy">   -285.29983834 </i>
   </energy>
  </scstep>
  <scstep>
   <time name="total">15426.6015454.44</time>
   <energy>
    <i name="e_fr_energy">   -275.53270002 </i>
    <i name="e_wo_entrp">   -275.53269675 </i>
    <i name="e_0_energy">   -275.53269838 </i>
   </energy>
  </scstep>
  <scstep>
   <time name="total">15196.9515224.23</time>
   <energy>
    <i name="e_fr_energy">   -276.12640479 </i>
    <i name="e_wo_entrp">   -276.12640479 </i>
    <i name="e_0_energy">   -276.12640479 </i>
   </energy>
  </scstep>
  <scstep>
   <time name="total">15259.2815286.69</time>
   <energy>
    <i name="e_fr_energy">   -280.72886153 </i>
    <i name="e_wo_entrp">   -280.72886153 </i>
    <i name="e_0_energy">   -280.72886153 </i>
   </energy>
  </scstep>
  <scstep>
   <time name="total">15273.7615301.47</time>
   <energy>
    <i name="e_fr_energy">   -281.79007766 </i>
    <i name="e_wo_entrp">   -281.79007766 </i>
    <i name="e_0_energy">   -281.79007766 </i>
   </energy>
  </scstep>
  <scstep>
   <time name="total">15238.0315265.42</time>
   <energy>
    <i name="e_fr_energy">   -281.07559400 </i>
    <i name="e_wo_entrp">   -281.07559399 </i>
    <i name="e_0_energy">   -281.07559399 </i>
   </energy>
  </scstep>
  <scstep>
   <time name="total">15126.9315159.82</time>
   <energy>
    <i name="e_fr_energy">   -281.16155564 </i>
    <i name="e_wo_entrp">   -281.16155564 </i>
    <i name="e_0_energy">   -281.16155564 </i>
   </energy>
  </scstep>
  <scstep>
   <time name="total">15196.0915224.82</time>
   <energy>
    <i name="e_fr_energy">   -281.58899240 </i>
    <i name="e_wo_entrp">   -281.58899240 </i>
    <i name="e_0_energy">   -281.58899240 </i>
   </energy>
  </scstep>
  <scstep>
   <time name="total">15270.0315296.25</time>
   <energy>
    <i name="e_fr_energy">   -281.74295496 </i>
    <i name="e_wo_entrp">   -281.74295496 </i>
    <i name="e_0_energy">   -281.74295496 </i>
   </energy>
  </scstep>
  <scstep>
   <time name="total">15148.1115173.51</time>
   <energy>
    <i name="e_fr_energy">   -281.77119801 </i>
    <i name="e_wo_entrp">   -281.77119801 </i>
    <i name="e_0_energy">   -281.77119801 </i>
   </energy>
  </scstep>
  <scstep>
   <time name="total">15244.8815272.58</time>
   <energy>
    <i name="e_fr_energy">   -281.84433656 </i>
    <i name="e_wo_entrp">   -281.84433656 </i>
    <i name="e_0_energy">   -281.84433656 </i>
   </energy>
  </scstep>
  <scstep>
   <time name="total">15077.7115104.28</time>
   <energy>
    <i name="e_fr_energy">   -281.93327671 </i>
    <i name="e_wo_entrp">   -281.93327671 </i>
    <i name="e_0_energy">   -281.93327671 </i>
   </energy>
  </scstep>
  <scstep>
   <time name="total">15146.2815173.29</time>
   <energy>
    <i name="e_fr_energy">   -282.00318537 </i>
    <i name="e_wo_entrp">   -282.00318537 </i>
    <i name="e_0_energy">   -282.00318537 </i>
   </energy>
  </scstep>
  <scstep>
   <time name="total">15097.1115123.13</time>
   <energy>
    <i name="e_fr_energy">   -282.04954361 </i>
    <i name="e_wo_entrp">   -282.04954361 </i>
    <i name="e_0_energy">   -282.04954361 </i>
   </energy>
  </scstep>
  <scstep>
   <time name="total">15334.3315360.46</time>
   <energy>
    <i name="e_fr_energy">   -282.08720237 </i>
    <i name="e_wo_entrp">   -282.08720237 </i>
    <i name="e_0_energy">   -282.08720237 </i>
   </energy>
  </scstep>
  <scstep>
   <time name="total">15210.3015237.92</time>
   <energy>
    <i name="e_fr_energy">   -282.12613515 </i>
    <i name="e_wo_entrp">   -282.12613515 </i>
    <i name="e_0_energy">   -282.12613515 </i>
   </energy>
  </scstep>
  <scstep>
   <time name="total">15320.2315346.65</time>
   <energy>
    <i name="e_fr_energy">   -282.16240395 </i>
    <i name="e_wo_entrp">   -282.16240395 </i>
    <i name="e_0_energy">   -282.16240395 </i>
   </energy>
  </scstep>
  <scstep>
   <time name="total">15207.6615232.94</time>
   <energy>
    <i name="e_fr_energy">   -282.18934197 </i>
    <i name="e_wo_entrp">   -282.18934197 </i>
    <i name="e_0_energy">   -282.18934197 </i>
   </energy>
  </scstep>
  <scstep>
   <time name="total">15245.1715273.70</time>
   <energy>
    <i name="e_fr_energy">   -282.21200577 </i>
    <i name="e_wo_entrp">   -282.21200577 </i>
    <i name="e_0_energy">   -282.21200577 </i>
   </energy>
  </scstep>
  <scstep>
   <time name="total">15243.8115272.17</time>
   <energy>
    <i name="e_fr_energy">   -282.23316373 </i>
    <i name="e_wo_entrp">   -282.23316373 </i>
    <i name="e_0_energy">   -282.23316373 </i>
   </energy>
  </scstep>
  <scstep>
   <time name="total">15090.7215118.35</time>
   <energy>
    <i name="e_fr_energy">   -282.25245529 </i>
    <i name="e_wo_entrp">   -282.25245529 </i>
    <i name="e_0_energy">   -282.25245529 </i>
   </energy>
  </scstep>
  <scstep>
   <time name="total">15282.7915310.01</time>
   <energy>
    <i name="e_fr_energy">   -282.26818610 </i>
    <i name="e_wo_entrp">   -282.26818610 </i>
    <i name="e_0_energy">   -282.26818610 </i>
   </energy>
  </scstep>
  <scstep>
   <time name="total">15197.5115224.68</time>
   <energy>
    <i name="e_fr_energy">   -282.28175088 </i>
    <i name="e_wo_entrp">   -282.28175088 </i>
    <i name="e_0_energy">   -282.28175088 </i>
   </energy>
  </scstep>
  <scstep>
   <time name="total">15177.9915204.96</time>
   <energy>
    <i name="e_fr_energy">   -282.29398377 </i>
    <i name="e_wo_entrp">   -282.29398377 </i>
    <i name="e_0_energy">   -282.29398377 </i>
   </energy>
  </scstep>
  <scstep>
   <time name="total">15127.3115153.36</time>
   <energy>
    <i name="e_fr_energy">   -282.30482448 </i>
    <i name="e_wo_entrp">   -282.30482448 </i>
    <i name="e_0_energy">   -282.30482448 </i>
   </energy>
  </scstep>
  <scstep>
   <time name="total">15195.7415221.88</time>
   <energy>
    <i name="e_fr_energy">   -282.31428697 </i>
    <i name="e_wo_entrp">   -282.31428697 </i>
    <i name="e_0_energy">   -282.31428697 </i>
   </energy>
  </scstep>
  <scstep>
   <time name="total">15216.6415243.37</time>
   <energy>
    <i name="e_fr_energy">   -282.32255722 </i>
    <i name="e_wo_entrp">   -282.32255722 </i>
    <i name="e_0_energy">   -282.32255722 </i>
   </energy>
  </scstep>
  <scstep>
   <time name="total">15197.4715224.38</time>
   <energy>
    <i name="e_fr_energy">   -282.33016192 </i>
    <i name="e_wo_entrp">   -282.33016192 </i>
    <i name="e_0_energy">   -282.33016192 </i>
   </energy>
  </scstep>
  <scstep>
   <time name="total">15315.7815342.55</time>
   <energy>
    <i name="e_fr_energy">   -282.33627979 </i>
    <i name="e_wo_entrp">   -282.33627979 </i>
    <i name="e_0_energy">   -282.33627979 </i>
   </energy>
  </scstep>
  <scstep>
   <time name="total">15249.3515275.76</time>
   <energy>
    <i name="e_fr_energy">   -282.34190171 </i>
    <i name="e_wo_entrp">   -282.34190171 </i>
    <i name="e_0_energy">   -282.34190171 </i>
   </energy>
  </scstep>
  <scstep>
   <time name="total">15252.5815280.92</time>
   <energy>
    <i name="e_fr_energy">   -282.34680845 </i>
    <i name="e_wo_entrp">   -282.34680845 </i>
    <i name="e_0_energy">   -282.34680845 </i>
   </energy>
  </scstep>
  <scstep>
   <time name="total">15239.9415267.66</time>
   <energy>
    <i name="e_fr_energy">   -282.35095764 </i>
    <i name="e_wo_entrp">   -282.35095764 </i>
    <i name="e_0_energy">   -282.35095764 </i>
   </energy>
  </scstep>
  <scstep>
   <time name="total">15086.3015111.12</time>
   <energy>
    <i name="e_fr_energy">   -282.35466262 </i>
    <i name="e_wo_entrp">   -282.35466262 </i>
    <i name="e_0_energy">   -282.35466262 </i>
   </energy>
  </scstep>
  <scstep>
   <time name="total">15251.6215278.23</time>
   <energy>
    <i name="e_fr_energy">   -282.35804675 </i>
    <i name="e_wo_entrp">   -282.35804675 </i>
    <i name="e_0_energy">   -282.35804675 </i>
   </energy>
  </scstep>
  <scstep>
   <time name="total">15300.5915327.80</time>
   <energy>
    <i name="e_fr_energy">   -282.36083590 </i>
    <i name="e_wo_entrp">   -282.36083590 </i>
    <i name="e_0_energy">   -282.36083590 </i>
   </energy>
  </scstep>
  <scstep>
   <time name="total">15161.8415190.54</time>
   <energy>
    <i name="e_fr_energy">   -282.36345916 </i>
    <i name="e_wo_entrp">   -282.36345916 </i>
    <i name="e_0_energy">   -282.36345916 </i>
   </energy>
  </scstep>
  <scstep>
   <time name="total">15119.2015145.90</time>
   <energy>
    <i name="e_fr_energy">   -282.36558340 </i>
    <i name="e_wo_entrp">   -282.36558340 </i>
    <i name="e_0_energy">   -282.36558340 </i>
   </energy>
  </scstep>
  <scstep>
   <time name="total">15102.8215130.20</time>
   <energy>
    <i name="e_fr_energy">   -282.36772665 </i>
    <i name="e_wo_entrp">   -282.36772665 </i>
    <i name="e_0_energy">   -282.36772665 </i>
   </energy>
  </scstep>
  <scstep>
   <time name="total">15151.4615177.18</time>
   <energy>
    <i name="e_fr_energy">   -282.36958683 </i>
    <i name="e_wo_entrp">   -282.36958683 </i>
    <i name="e_0_energy">   -282.36958683 </i>
   </energy>
  </scstep>
  <scstep>
   <time name="total">15253.2015280.60</time>
   <energy>
    <i name="e_fr_energy">   -282.37144034 </i>
    <i name="e_wo_entrp">   -282.37144034 </i>
    <i name="e_0_energy">   -282.37144034 </i>
   </energy>
  </scstep>
  <scstep>
   <time name="total">15286.1915312.11</time>
   <energy>
    <i name="e_fr_energy">   -282.37259228 </i>
    <i name="e_wo_entrp">   -282.37259228 </i>
    <i name="e_0_energy">   -282.37259228 </i>
   </energy>
  </scstep>
  <scstep>
   <time name="total">15278.3115310.87</time>
   <energy>
    <i name="e_fr_energy">   -282.37458491 </i>
    <i name="e_wo_entrp">   -282.37458491 </i>
    <i name="e_0_energy">   -282.37458491 </i>
   </energy>
  </scstep>
  <scstep>
   <time name="total">15083.3815108.89</time>
   <energy>
    <i name="e_fr_energy">   -282.37558657 </i>
    <i name="e_wo_entrp">   -282.37558657 </i>
    <i name="e_0_energy">   -282.37558657 </i>
   </energy>
  </scstep>
  <scstep>
   <time name="total">15010.9415036.36</time>
   <energy>
    <i name="e_fr_energy">   -282.37669330 </i>
    <i name="e_wo_entrp">   -282.37669330 </i>
    <i name="e_0_energy">   -282.37669330 </i>
   </energy>
  </scstep>
  <scstep>
   <time name="total">15120.2615147.10</time>
   <energy>
    <i name="e_fr_energy">   -282.37732489 </i>
    <i name="e_wo_entrp">   -282.37732489 </i>
    <i name="e_0_energy">   -282.37732489 </i>
   </energy>
  </scstep>
  <scstep>
   <time name="total">15216.6315242.08</time>
   <energy>
    <i name="e_fr_energy">   -282.37837936 </i>
    <i name="e_wo_entrp">   -282.37837936 </i>
    <i name="e_0_energy">   -282.37837936 </i>
   </energy>
  </scstep>
  <scstep>
   <time name="total">15143.6815171.54</time>
   <energy>
    <i name="e_fr_energy">   -282.37902741 </i>
    <i name="e_wo_entrp">   -282.37902741 </i>
    <i name="e_0_energy">   -282.37902741 </i>
   </energy>
  </scstep>
  <scstep>
   <time name="total">15319.9315346.07</time>
   <energy>
    <i name="e_fr_energy">   -282.37976904 </i>
    <i name="e_wo_entrp">   -282.37976904 </i>
    <i name="e_0_energy">   -282.37976904 </i>
   </energy>
  </scstep>
  <scstep>
   <time name="total">15110.0115136.12</time>
   <energy>
    <i name="e_fr_energy">   -282.38053725 </i>
    <i name="e_wo_entrp">   -282.38053725 </i>
    <i name="e_0_energy">   -282.38053725 </i>
   </energy>
  </scstep>
  <scstep>
   <time name="total">15301.1815328.82</time>
   <energy>
    <i name="e_fr_energy">   -282.38118754 </i>
    <i name="e_wo_entrp">   -282.38118754 </i>
    <i name="e_0_energy">   -282.38118754 </i>
   </energy>
  </scstep>
  <scstep>
   <time name="total">15144.6115170.61</time>
   <energy>
    <i name="e_fr_energy">   -282.38163142 </i>
    <i name="e_wo_entrp">   -282.38163142 </i>
    <i name="e_0_energy">   -282.38163142 </i>
   </energy>
  </scstep>
  <scstep>
   <time name="total">15324.9415350.03</time>
   <energy>
    <i name="e_fr_energy">   -282.38228519 </i>
    <i name="e_wo_entrp">   -282.38228519 </i>
    <i name="e_0_energy">   -282.38228519 </i>
   </energy>
  </scstep>
  <scstep>
   <time name="total">15266.9215295.34</time>
   <energy>
    <i name="e_fr_energy">   -282.38236814 </i>
    <i name="e_wo_entrp">   -282.38236814 </i>
    <i name="e_0_energy">   -282.38236814 </i>
   </energy>
  </scstep>
  <scstep>
   <time name="total">15300.6915327.81</time>
   <energy>
    <i name="e_fr_energy">   -282.38319385 </i>
    <i name="e_wo_entrp">   -282.38319385 </i>
    <i name="e_0_energy">   -282.38319385 </i>
   </energy>
  </scstep>
  <scstep>
   <time name="total">15132.4215161.04</time>
   <energy>
    <i name="e_fr_energy">   -282.38324759 </i>
    <i name="e_wo_entrp">   -282.38324759 </i>
    <i name="e_0_energy">   -282.38324759 </i>
   </energy>
  </scstep>
  <scstep>
   <time name="total">30301.2930356.15</time>
   <energy>
    <i name="alphaZ">   1398.37695978 </i>
    <i name="ewald"> -15345.76116035 </i>
    <i name="hartreedc">  -9980.75460831 </i>
    <i name="XCdc">    509.70380830 </i>
    <i name="pawpsdc">  34566.52875473 </i>
    <i name="pawaedc"> -34233.28903821 </i>
    <i name="eentropy">     -0.00000000 </i>
    <i name="bandstr">  -4049.30863596 </i>
    <i name="atom">  26088.35735181 </i>
    <i name="e_fr_energy">   -282.38419911 </i>
    <i name="e_wo_entrp">   -282.38419911 </i>
    <i name="e_0_energy">   -282.38419911 </i>
   </energy>
  </scstep>
  <structure>
   <crystal>
    <varray name="basis" >
     <v>      19.57216263       0.00000000       0.00000000 </v>
     <v>       0.00000000       7.16060400       0.00000000 </v>
     <v>       0.00000000       1.38837625      10.28371310 </v>
    </varray>
    <i name="volume">   1441.24702706 </i>
    <varray name="rec_basis" >
     <v>       0.05109297       0.00000000       0.00000000 </v>
     <v>       0.00000000       0.13965302      -0.01885418 </v>
     <v>       0.00000000       0.00000000       0.09724114 </v>
    </varray>
   </crystal>
   <varray name="positions" >
    <v>       0.40520199       0.76872197       0.88459999 </v>
    <v>       0.09479800       0.26872201       0.88459999 </v>
    <v>       0.90520199       0.73127799       0.11540000 </v>
    <v>       0.59479801       0.23127799       0.11540000 </v>
    <v>       0.82768498       0.13471601       0.57874697 </v>
    <v>       0.67227999       0.03741600       0.57922697 </v>
    <v>       0.17228000       0.46258400       0.42077301 </v>
    <v>       0.67231502       0.63471591       0.57874697 </v>
    <v>       0.33012598       0.21310298       0.17458900 </v>
    <v>       0.66987399       0.78689696       0.82541108 </v>
    <v>       0.32768500       0.36528399       0.42125301 </v>
    <v>       0.16987399       0.71310305       0.17458900 </v>
    <v>       0.17231500       0.86528399       0.42125301 </v>
    <v>       0.83012596       0.28689700       0.82541108 </v>
    <v>       0.82771996       0.53741600       0.57922697 </v>
    <v>       0.32771999       0.96258404       0.42077301 </v>
    <v>       0.76231498       0.81748499       0.67325999 </v>
    <v>       0.26231500       0.68251504       0.32674001 </v>
    <v>       0.73768502       0.31748499       0.67325999 </v>
    <v>       0.23768500       0.18251499       0.32674001 </v>
    <v>       0.75008303       0.01093099       0.95642505 </v>
    <v>       0.41396401       0.13764700       0.55523301 </v>
    <v>       0.74991697       0.51093096       0.95642505 </v>
    <v>       0.07943200       0.94937701       0.24077501 </v>
    <v>       0.59857101       0.74086996       0.05725900 </v>
    <v>       0.42013901       0.94979104       0.23899301 </v>
    <v>       0.90142904       0.24087000       0.05725900 </v>
    <v>       0.75017001       0.12530800       0.36914400 </v>
    <v>       0.25008301       0.48906903       0.04357500 </v>
    <v>       0.40142899       0.25912998       0.94274097 </v>
    <v>       0.08603600       0.63764695       0.55523301 </v>
    <v>       0.57943200       0.55062302       0.75922504 </v>
    <v>       0.24991699       0.98906899       0.04357500 </v>
    <v>       0.92056795       0.05062298       0.75922504 </v>
    <v>       0.58603604       0.86235308       0.44476701 </v>
    <v>       0.91396401       0.36235298       0.44476701 </v>
    <v>       0.09857100       0.75912994       0.94274097 </v>
    <v>       0.24982999       0.87469203       0.63085600 </v>
    <v>       0.92013897       0.55020899       0.76100701 </v>
    <v>       0.10100399       0.14254899       0.53351202 </v>
    <v>       0.57986099       0.05020900       0.76100701 </v>
    <v>       0.74982999       0.62530800       0.36914400 </v>
    <v>       0.42056800       0.44937697       0.24077501 </v>
    <v>       0.89899595       0.85745102       0.46648801 </v>
    <v>       0.60100400       0.35745098       0.46648801 </v>
    <v>       0.25016998       0.37469200       0.63085600 </v>
    <v>       0.39899600       0.64254901       0.53351202 </v>
    <v>       0.07986100       0.44979101       0.23899301 </v>
   </varray>
  </structure>
  <varray name="forces" >
   <v>       0.00176314      -0.05499844      -0.08893887 </v>
   <v>      -0.00176314      -0.05499844      -0.08893887 </v>
   <v>       0.00176314       0.05499844       0.08893887 </v>
   <v>      -0.00176314       0.05499844       0.08893887 </v>
   <v>      -0.46835144      -0.97769347      -0.00788689 </v>
   <v>       0.51274696       0.95121124      -0.03568240 </v>
   <v>       0.51274696      -0.95121124       0.03568240 </v>
   <v>       0.46835144      -0.97769347      -0.00788689 </v>
   <v>       0.23518565       0.04465456       0.59318364 </v>
   <v>      -0.23518565      -0.04465456      -0.59318364 </v>
   <v>      -0.46835144       0.97769347       0.00788689 </v>
   <v>      -0.23518565       0.04465456       0.59318364 </v>
   <v>       0.46835144       0.97769347       0.00788689 </v>
   <v>       0.23518565      -0.04465456      -0.59318364 </v>
   <v>      -0.51274696       0.95121124      -0.03568240 </v>
   <v>      -0.51274696      -0.95121124       0.03568240 </v>
   <v>       0.77407897      -0.00367313      -0.57424810 </v>
   <v>       0.77407897       0.00367313       0.57424810 </v>
   <v>      -0.77407897      -0.00367313      -0.57424810 </v>
   <v>      -0.77407897       0.00367313       0.57424810 </v>
   <v>       0.01363762       0.00851247       0.14572324 </v>
   <v>      -0.31155446       0.06586458      -0.13763310 </v>
   <v>      -0.01363762       0.00851247       0.14572324 </v>
   <v>       0.10397089       0.25623773       0.16735499 </v>
   <v>      -0.09010589      -0.01121551      -0.02082644 </v>
   <v>      -0.11364157      -0.25659405       0.12407707 </v>
   <v>       0.09010589      -0.01121551      -0.02082644 </v>
   <v>       0.01233720      -0.00479016       0.20329804 </v>
   <v>       0.01363762      -0.00851247      -0.14572324 </v>
   <v>       0.09010589       0.01121551       0.02082644 </v>
   <v>       0.31155446       0.06586458      -0.13763310 </v>
   <v>       0.10397089      -0.25623773      -0.16735499 </v>
   <v>      -0.01363762      -0.00851247      -0.14572324 </v>
   <v>      -0.10397089      -0.25623773      -0.16735499 </v>
   <v>       0.31155446      -0.06586458       0.13763310 </v>
   <v>      -0.31155446      -0.06586458       0.13763310 </v>
   <v>      -0.09010589       0.01121551       0.02082644 </v>
   <v>      -0.01233720       0.00479016      -0.20329804 </v>
   <v>      -0.11364157       0.25659405      -0.12407707 </v>
   <v>       0.30085944      -0.03399112      -0.31973226 </v>
   <v>       0.11364157       0.25659405      -0.12407707 </v>
   <v>      -0.01233720      -0.00479016       0.20329804 </v>
   <v>      -0.10397089       0.25623773       0.16735499 </v>
   <v>      -0.30085944       0.03399112       0.31973226 </v>
   <v>       0.30085944       0.03399112       0.31973226 </v>
   <v>       0.01233720       0.00479016      -0.20329804 </v>
   <v>      -0.30085944      -0.03399112      -0.31973226 </v>
   <v>       0.11364157      -0.25659405       0.12407707 </v>
  </varray>
  <energy>
   <i name="e_fr_energy">   -282.38419911 </i>
   <i name="e_wo_entrp">   -282.38419911 </i>
   <i name="e_0_energy">     -0.00000000 </i>
  </energy>
  <time name="totalsc">****************</time>
  <eigenvalues>
   <array>
    <dimension dim="1">band</dimension>
    <dimension dim="2">kpoint</dimension>
    <dimension dim="3">spin</dimension>
    <field>eigene</field>
    <field>occ</field>
    <set>
     <set comment="spin 1">
      <set comment="kpoint 1">
       <r>  -39.6914    1.0000 </r>
       <r>  -39.6245    1.0000 </r>
       <r>  -39.5251    1.0000 </r>
       <r>  -39.5222    1.0000 </r>
       <r>  -39.4359    1.0000 </r>
       <r>  -39.3922    1.0000 </r>
       <r>  -39.3824    1.0000 </r>
       <r>  -39.3712    1.0000 </r>
       <r>  -39.2627    1.0000 </r>
       <r>  -39.2427    1.0000 </r>
       <r>  -39.0200    1.0000 </r>
       <r>  -38.9933    1.0000 </r>
       <r>  -38.3744    1.0000 </r>
       <r>  -38.3701    1.0000 </r>
       <r>  -38.3212    1.0000 </r>
       <r>  -38.3164    1.0000 </r>
       <r>  -38.0419    1.0000 </r>
       <r>  -38.0402    1.0000 </r>
       <r>  -26.5645    1.0000 </r>
       <r>  -26.5588    1.0000 </r>
       <r>  -26.3857    1.0000 </r>
       <r>  -26.3788    1.0000 </r>
       <r>  -26.2512    1.0000 </r>
       <r>  -26.2502    1.0000 </r>
       <r>  -25.3835    1.0000 </r>
       <r>  -25.3538    1.0000 </r>
       <r>  -25.3085    1.0000 </r>
       <r>  -25.2833    1.0000 </r>
       <r>  -25.1102    1.0000 </r>
       <r>  -25.0821    1.0000 </r>
       <r>  -25.0586    1.0000 </r>
       <r>  -25.0517    1.0000 </r>
       <r>  -25.0228    1.0000 </r>
       <r>  -24.9831    1.0000 </r>
       <r>  -24.8192    1.0000 </r>
       <r>  -24.7992    1.0000 </r>
       <r>  -23.4241    1.0000 </r>
       <r>  -23.4231    1.0000 </r>
       <r>  -20.7352    1.0000 </r>
       <r>  -20.1618    1.0000 </r>
       <r>  -20.1442    1.0000 </r>
       <r>  -19.9225    1.0000 </r>
       <r>  -19.8461    1.0000 </r>
       <r>  -19.6047    1.0000 </r>
       <r>  -19.4653    1.0000 </r>
       <r>  -19.4652    1.0000 </r>
       <r>  -18.9301    1.0000 </r>
       <r>  -18.8532    1.0000 </r>
       <r>  -18.5851    1.0000 </r>
       <r>  -18.5735    1.0000 </r>
       <r>  -18.3734    1.0000 </r>
       <r>  -18.3486    1.0000 </r>
       <r>  -17.5949    1.0000 </r>
       <r>  -17.5375    1.0000 </r>
       <r>  -16.2127    1.0000 </r>
       <r>  -16.1978    1.0000 </r>
       <r>  -12.5980    1.0000 </r>
       <r>  -12.5763    1.0000 </r>
       <r>  -12.3696    1.0000 </r>
       <r>  -12.3653    1.0000 </r>
       <r>  -12.1686    1.0000 </r>
       <r>  -12.1652    1.0000 </r>
       <r>  -11.8812    1.0000 </r>
       <r>  -11.6603    1.0000 </r>
       <r>  -11.6494    1.0000 </r>
       <r>  -11.5004    1.0000 </r>
       <r>  -11.4880    1.0000 </r>
       <r>  -10.9767    1.0000 </r>
       <r>  -10.8089    1.0000 </r>
       <r>  -10.4835    1.0000 </r>
       <r>  -10.3433    1.0000 </r>
       <r>  -10.3110    1.0000 </r>
       <r>  -10.1598    1.0000 </r>
       <r>  -10.1119    1.0000 </r>
       <r>   -9.8973    1.0000 </r>
       <r>   -9.8093    1.0000 </r>
       <r>   -9.3831    1.0000 </r>
       <r>   -9.3449    1.0000 </r>
       <r>   -9.3142    1.0000 </r>
       <r>   -9.2846    1.0000 </r>
       <r>   -9.2519    1.0000 </r>
       <r>   -9.2189    1.0000 </r>
       <r>   -8.8683    1.0000 </r>
       <r>   -8.6404    1.0000 </r>
       <r>   -8.3607    1.0000 </r>
       <r>   -8.2142    1.0000 </r>
       <r>   -8.1960    1.0000 </r>
       <r>   -8.0884    1.0000 </r>
       <r>   -7.7012    1.0000 </r>
       <r>   -7.6157    1.0000 </r>
       <r>   -7.5628    1.0000 </r>
       <r>   -7.5075    1.0000 </r>
       <r>   -7.2656    1.0000 </r>
       <r>   -7.1760    1.0000 </r>
       <r>   -6.9873    1.0000 </r>
       <r>   -6.9765    1.0000 </r>
       <r>   -6.8031    1.0000 </r>
       <r>   -6.7978    1.0000 </r>
       <r>   -6.7408    1.0000 </r>
       <r>   -6.7163    1.0000 </r>
       <r>   -6.6790    1.0000 </r>
       <r>   -6.5508    1.0000 </r>
       <r>   -6.5096    1.0000 </r>
       <r>   -6.5044    1.0000 </r>
       <r>   -6.3542    1.0000 </r>
       <r>   -6.3188    1.0000 </r>
       <r>   -6.2340    1.0000 </r>
       <r>   -5.9923    1.0000 </r>
       <r>   -5.8688    1.0000 </r>
       <r>   -5.8093    1.0000 </r>
       <r>   -5.6156    1.0000 </r>
       <r>   -5.5277    1.0000 </r>
       <r>   -5.3990    1.0000 </r>
       <r>   -5.3833    1.0000 </r>
       <r>   -5.3299    1.0000 </r>
       <r>   -5.2931    1.0000 </r>
       <r>   -5.2888    1.0000 </r>
       <r>   -5.2562    1.0000 </r>
       <r>   -5.2412    1.0000 </r>
       <r>   -5.2410    1.0000 </r>
       <r>   -5.0157    1.0000 </r>
       <r>   -5.0126    1.0000 </r>
       <r>   -4.8537    1.0000 </r>
       <r>   -4.8325    1.0000 </r>
       <r>   -4.7160    1.0000 </r>
       <r>   -4.4828    1.0000 </r>
       <r>   -4.4653    1.0000 </r>
       <r>   -4.4443    1.0000 </r>
       <r>   -4.1701    1.0000 </r>
       <r>   -4.1078    1.0000 </r>
       <r>   -4.0914    1.0000 </r>
       <r>   -3.9668    1.0000 </r>
       <r>   -3.6251    1.0000 </r>
       <r>   -3.4571    1.0000 </r>
       <r>   -3.4425    1.0000 </r>
       <r>   -2.9635    1.0000 </r>
       <r>   -2.8662    1.0000 </r>
       <r>   -2.7631    1.0000 </r>
       <r>   -2.7406    1.0000 </r>
       <r>   -0.8965    1.0000 </r>
       <r>   -0.8271    1.0000 </r>
       <r>   -0.6821    1.0000 </r>
       <r>   -0.6408    1.0000 </r>
       <r>   -0.4992    1.0000 </r>
       <r>   -0.4510    1.0000 </r>
       <r>   -0.1783    1.0000 </r>
       <r>    0.0506    1.0000 </r>
       <r>    0.1107    1.0000 </r>
       <r>    0.2548    1.0000 </r>
       <r>    0.2953    1.0000 </r>
       <r>    0.2971    1.0000 </r>
       <r>    0.4103    1.0000 </r>
       <r>    0.5034    1.0000 </r>
       <r>    0.5799    1.0000 </r>
       <r>    0.7014    1.0000 </r>
       <r>    0.7242    1.0000 </r>
       <r>    0.7757    1.0000 </r>
       <r>    1.0158    1.0000 </r>
       <r>    1.0950    1.0000 </r>
       <r>    1.2366    1.0000 </r>
       <r>    1.3848    1.0000 </r>
       <r>    1.4576    1.0000 </r>
       <r>    1.4802    1.0000 </r>
       <r>    1.5513    1.0000 </r>
       <r>    1.7289    1.0000 </r>
       <r>    1.8635    1.0000 </r>
       <r>    1.9395    1.0000 </r>
       <r>    1.9724    1.0000 </r>
       <r>    2.0236    1.0000 </r>
       <r>    2.0695    1.0000 </r>
       <r>    2.2135    1.0000 </r>
       <r>    2.3523    1.0000 </r>
       <r>    2.3815    1.0000 </r>
       <r>    2.3891    1.0000 </r>
       <r>    2.5281    1.0000 </r>
       <r>    2.6088    1.0000 </r>
       <r>    2.7058    1.0000 </r>
       <r>    2.8557    1.0000 </r>
       <r>    3.1246    1.0000 </r>
       <r>    3.1299    1.0000 </r>
       <r>    3.3091    1.0000 </r>
       <r>    3.3667    1.0000 </r>
       <r>    3.6999    1.0000 </r>
       <r>    4.1017    1.0000 </r>
       <r>    4.1107    1.0000 </r>
       <r>    4.2918    1.0000 </r>
       <r>    4.6787    1.0000 </r>
       <r>    6.1893    1.0000 </r>
       <r>    6.3254    1.0000 </r>
       <r>    6.5647    1.0000 </r>
       <r>    6.6602    1.0000 </r>
       <r>    6.9768    1.0000 </r>
       <r>    7.2207    1.0000 </r>
       <r>    7.2872    1.0000 </r>
       <r>   -2.5166    0.0000 </r>
       <r>   -2.5134    0.0000 </r>
       <r>   -2.4603    0.0000 </r>
       <r>   -2.4578    0.0000 </r>
       <r>   -2.2957    0.0000 </r>
       <r>   -1.6414    0.0000 </r>
       <r>   -1.3735    0.0000 </r>
       <r>   -0.9370    0.0000 </r>
       <r>   -0.8643    0.0000 </r>
       <r>   -0.6382    0.0000 </r>
       <r>   -0.5880    0.0000 </r>
       <r>   -0.5857    0.0000 </r>
       <r>   -0.4441    0.0000 </r>
       <r>    0.2970    0.0000 </r>
       <r>    0.5625    0.0000 </r>
       <r>    3.1853    0.0000 </r>
       <r>    4.4516    0.0000 </r>
       <r>    4.9374    0.0000 </r>
       <r>    5.1419    0.0000 </r>
       <r>    6.4899    0.0000 </r>
       <r>    6.7687    0.0000 </r>
       <r>    6.8337    0.0000 </r>
       <r>    7.5574    0.0000 </r>
       <r>    7.6652    0.0000 </r>
       <r>    8.1252    0.0000 </r>
       <r>    8.6971    0.0000 </r>
       <r>    8.9628    0.0000 </r>
       <r>    9.1866    0.0000 </r>
       <r>    9.3425    0.0000 </r>
       <r>    9.8714    0.0000 </r>
       <r>    9.9541    0.0000 </r>
       <r>    9.9647    0.0000 </r>
       <r>   10.1054    0.0000 </r>
       <r>   10.3742    0.0000 </r>
       <r>   10.4881    0.0000 </r>
       <r>   10.5214    0.0000 </r>
       <r>   10.7051    0.0000 </r>
       <r>   11.0716    0.0000 </r>
      </set>
      <set comment="kpoint 2">
       <r>  -39.6914    1.0000 </r>
       <r>  -39.6245    1.0000 </r>
       <r>  -39.5251    1.0000 </r>
       <r>  -39.5222    1.0000 </r>
       <r>  -39.4360    1.0000 </r>
       <r>  -39.3922    1.0000 </r>
       <r>  -39.3824    1.0000 </r>
       <r>  -39.3712    1.0000 </r>
       <r>  -39.2627    1.0000 </r>
       <r>  -39.2426    1.0000 </r>
       <r>  -39.0200    1.0000 </r>
       <r>  -38.9933    1.0000 </r>
       <r>  -38.3744    1.0000 </r>
       <r>  -38.3701    1.0000 </r>
       <r>  -38.3212    1.0000 </r>
       <r>  -38.3164    1.0000 </r>
       <r>  -38.0419    1.0000 </r>
       <r>  -38.0402    1.0000 </r>
       <r>  -26.5645    1.0000 </r>
       <r>  -26.5588    1.0000 </r>
       <r>  -26.3857    1.0000 </r>
       <r>  -26.3788    1.0000 </r>
       <r>  -26.2511    1.0000 </r>
       <r>  -26.2502    1.0000 </r>
       <r>  -25.3835    1.0000 </r>
       <r>  -25.3538    1.0000 </r>
       <r>  -25.3085    1.0000 </r>
       <r>  -25.2833    1.0000 </r>
       <r>  -25.1102    1.0000 </r>
       <r>  -25.0821    1.0000 </r>
       <r>  -25.0586    1.0000 </r>
       <r>  -25.0517    1.0000 </r>
       <r>  -25.0228    1.0000 </r>
       <r>  -24.9831    1.0000 </r>
       <r>  -24.8192    1.0000 </r>
       <r>  -24.7992    1.0000 </r>
       <r>  -23.4241    1.0000 </r>
       <r>  -23.4231    1.0000 </r>
       <r>  -20.7352    1.0000 </r>
       <r>  -20.1617    1.0000 </r>
       <r>  -20.1443    1.0000 </r>
       <r>  -19.9225    1.0000 </r>
       <r>  -19.8461    1.0000 </r>
       <r>  -19.6047    1.0000 </r>
       <r>  -19.4654    1.0000 </r>
       <r>  -19.4651    1.0000 </r>
       <r>  -18.9302    1.0000 </r>
       <r>  -18.8532    1.0000 </r>
       <r>  -18.5851    1.0000 </r>
       <r>  -18.5735    1.0000 </r>
       <r>  -18.3734    1.0000 </r>
       <r>  -18.3486    1.0000 </r>
       <r>  -17.5950    1.0000 </r>
       <r>  -17.5375    1.0000 </r>
       <r>  -16.2127    1.0000 </r>
       <r>  -16.1978    1.0000 </r>
       <r>  -12.5983    1.0000 </r>
       <r>  -12.5761    1.0000 </r>
       <r>  -12.3696    1.0000 </r>
       <r>  -12.3653    1.0000 </r>
       <r>  -12.1686    1.0000 </r>
       <r>  -12.1652    1.0000 </r>
       <r>  -11.8814    1.0000 </r>
       <r>  -11.6604    1.0000 </r>
       <r>  -11.6494    1.0000 </r>
       <r>  -11.5004    1.0000 </r>
       <r>  -11.4880    1.0000 </r>
       <r>  -10.9770    1.0000 </r>
       <r>  -10.8089    1.0000 </r>
       <r>  -10.4835    1.0000 </r>
       <r>  -10.3433    1.0000 </r>
       <r>  -10.3111    1.0000 </r>
       <r>  -10.1598    1.0000 </r>
       <r>  -10.1121    1.0000 </r>
       <r>   -9.8975    1.0000 </r>
       <r>   -9.8093    1.0000 </r>
       <r>   -9.3832    1.0000 </r>
       <r>   -9.3449    1.0000 </r>
       <r>   -9.3143    1.0000 </r>
       <r>   -9.2845    1.0000 </r>
       <r>   -9.2516    1.0000 </r>
       <r>   -9.2189    1.0000 </r>
       <r>   -8.8684    1.0000 </r>
       <r>   -8.6407    1.0000 </r>
       <r>   -8.3615    1.0000 </r>
       <r>   -8.2141    1.0000 </r>
       <r>   -8.1965    1.0000 </r>
       <r>   -8.0885    1.0000 </r>
       <r>   -7.7018    1.0000 </r>
       <r>   -7.6161    1.0000 </r>
       <r>   -7.5635    1.0000 </r>
       <r>   -7.5073    1.0000 </r>
       <r>   -7.2670    1.0000 </r>
       <r>   -7.1770    1.0000 </r>
       <r>   -6.9870    1.0000 </r>
       <r>   -6.9773    1.0000 </r>
       <r>   -6.8036    1.0000 </r>
       <r>   -6.7983    1.0000 </r>
       <r>   -6.7421    1.0000 </r>
       <r>   -6.7180    1.0000 </r>
       <r>   -6.6795    1.0000 </r>
       <r>   -6.5498    1.0000 </r>
       <r>   -6.5098    1.0000 </r>
       <r>   -6.5045    1.0000 </r>
       <r>   -6.3545    1.0000 </r>
       <r>   -6.3185    1.0000 </r>
       <r>   -6.2338    1.0000 </r>
       <r>   -5.9901    1.0000 </r>
       <r>   -5.8705    1.0000 </r>
       <r>   -5.8088    1.0000 </r>
       <r>   -5.6161    1.0000 </r>
       <r>   -5.5267    1.0000 </r>
       <r>   -5.4009    1.0000 </r>
       <r>   -5.3823    1.0000 </r>
       <r>   -5.3152    1.0000 </r>
       <r>   -5.3056    1.0000 </r>
       <r>   -5.2860    1.0000 </r>
       <r>   -5.2595    1.0000 </r>
       <r>   -5.2467    1.0000 </r>
       <r>   -5.2402    1.0000 </r>
       <r>   -5.0114    1.0000 </r>
       <r>   -5.0077    1.0000 </r>
       <r>   -4.8570    1.0000 </r>
       <r>   -4.8333    1.0000 </r>
       <r>   -4.7157    1.0000 </r>
       <r>   -4.4842    1.0000 </r>
       <r>   -4.4644    1.0000 </r>
       <r>   -4.4469    1.0000 </r>
       <r>   -4.1713    1.0000 </r>
       <r>   -4.1077    1.0000 </r>
       <r>   -4.0930    1.0000 </r>
       <r>   -3.9653    1.0000 </r>
       <r>   -3.6254    1.0000 </r>
       <r>   -3.4570    1.0000 </r>
       <r>   -3.4461    1.0000 </r>
       <r>   -2.9629    1.0000 </r>
       <r>   -2.8660    1.0000 </r>
       <r>   -2.7627    1.0000 </r>
       <r>   -2.7440    1.0000 </r>
       <r>   -0.8985    1.0000 </r>
       <r>   -0.8261    1.0000 </r>
       <r>   -0.6807    1.0000 </r>
       <r>   -0.6423    1.0000 </r>
       <r>   -0.4962    1.0000 </r>
       <r>   -0.4537    1.0000 </r>
       <r>   -0.1846    1.0000 </r>
       <r>    0.0607    1.0000 </r>
       <r>    0.1236    1.0000 </r>
       <r>    0.2428    1.0000 </r>
       <r>    0.2949    1.0000 </r>
       <r>    0.2969    1.0000 </r>
       <r>    0.4071    1.0000 </r>
       <r>    0.5028    1.0000 </r>
       <r>    0.5803    1.0000 </r>
       <r>    0.7016    1.0000 </r>
       <r>    0.7260    1.0000 </r>
       <r>    0.7747    1.0000 </r>
       <r>    1.0153    1.0000 </r>
       <r>    1.0910    1.0000 </r>
       <r>    1.2347    1.0000 </r>
       <r>    1.3841    1.0000 </r>
       <r>    1.4554    1.0000 </r>
       <r>    1.4806    1.0000 </r>
       <r>    1.5514    1.0000 </r>
       <r>    1.7293    1.0000 </r>
       <r>    1.8628    1.0000 </r>
       <r>    1.9383    1.0000 </r>
       <r>    1.9711    1.0000 </r>
       <r>    2.0232    1.0000 </r>
       <r>    2.0681    1.0000 </r>
       <r>    2.2103    1.0000 </r>
       <r>    2.3510    1.0000 </r>
       <r>    2.3807    1.0000 </r>
       <r>    2.3893    1.0000 </r>
       <r>    2.5237    1.0000 </r>
       <r>    2.6083    1.0000 </r>
       <r>    2.7054    1.0000 </r>
       <r>    2.8542    1.0000 </r>
       <r>    3.1249    1.0000 </r>
       <r>    3.1275    1.0000 </r>
       <r>    3.3144    1.0000 </r>
       <r>    3.3676    1.0000 </r>
       <r>    3.7011    1.0000 </r>
       <r>    4.1021    1.0000 </r>
       <r>    4.1112    1.0000 </r>
       <r>    4.2918    1.0000 </r>
       <r>    4.6788    1.0000 </r>
       <r>    6.1875    1.0000 </r>
       <r>    6.3243    1.0000 </r>
       <r>    6.5639    1.0000 </r>
       <r>    6.6619    1.0000 </r>
       <r>    6.9766    1.0000 </r>
       <r>    7.2241    1.0000 </r>
       <r>    7.2984    1.0000 </r>
       <r>   -2.5109    0.0000 </r>
       <r>   -2.4939    0.0000 </r>
       <r>   -2.4357    0.0000 </r>
       <r>   -2.3092    0.0000 </r>
       <r>   -1.6575    0.0000 </r>
       <r>   -1.3542    0.0000 </r>
       <r>   -0.9500    0.0000 </r>
       <r>   -0.8824    0.0000 </r>
       <r>   -0.6430    0.0000 </r>
       <r>   -0.4945    0.0000 </r>
       <r>   -0.4216    0.0000 </r>
       <r>   -0.1089    0.0000 </r>
       <r>   -0.0302    0.0000 </r>
       <r>    0.2764    0.0000 </r>
       <r>    0.6610    0.0000 </r>
       <r>    1.1505    0.0000 </r>
       <r>    2.1962    0.0000 </r>
       <r>    4.8287    0.0000 </r>
       <r>    5.6339    0.0000 </r>
       <r>    5.8345    0.0000 </r>
       <r>    6.0752    0.0000 </r>
       <r>    6.5453    0.0000 </r>
       <r>    7.5428    0.0000 </r>
       <r>    8.1081    0.0000 </r>
       <r>    9.0703    0.0000 </r>
       <r>    9.1098    0.0000 </r>
       <r>    9.1778    0.0000 </r>
       <r>    9.2473    0.0000 </r>
       <r>    9.2864    0.0000 </r>
       <r>    9.6463    0.0000 </r>
       <r>    9.7616    0.0000 </r>
       <r>    9.9765    0.0000 </r>
       <r>   10.0228    0.0000 </r>
       <r>   10.1101    0.0000 </r>
       <r>   10.3496    0.0000 </r>
       <r>   10.3622    0.0000 </r>
       <r>   10.7292    0.0000 </r>
       <r>   11.1065    0.0000 </r>
      </set>
      <set comment="kpoint 3">
       <r>  -39.6534    1.0000 </r>
       <r>  -39.6514    1.0000 </r>
       <r>  -39.5243    1.0000 </r>
       <r>  -39.5225    1.0000 </r>
       <r>  -39.4099    1.0000 </r>
       <r>  -39.4082    1.0000 </r>
       <r>  -39.3844    1.0000 </r>
       <r>  -39.3833    1.0000 </r>
       <r>  -39.2495    1.0000 </r>
       <r>  -39.2484    1.0000 </r>
       <r>  -39.0164    1.0000 </r>
       <r>  -39.0143    1.0000 </r>
       <r>  -38.3733    1.0000 </r>
       <r>  -38.3717    1.0000 </r>
       <r>  -38.3197    1.0000 </r>
       <r>  -38.3181    1.0000 </r>
       <r>  -38.0414    1.0000 </r>
       <r>  -38.0398    1.0000 </r>
       <r>  -26.5622    1.0000 </r>
       <r>  -26.5612    1.0000 </r>
       <r>  -26.3830    1.0000 </r>
       <r>  -26.3821    1.0000 </r>
       <r>  -26.2510    1.0000 </r>
       <r>  -26.2500    1.0000 </r>
       <r>  -25.3443    1.0000 </r>
       <r>  -25.3437    1.0000 </r>
       <r>  -25.3126    1.0000 </r>
       <r>  -25.3117    1.0000 </r>
       <r>  -25.0800    1.0000 </r>
       <r>  -25.0795    1.0000 </r>
       <r>  -25.0658    1.0000 </r>
       <r>  -25.0650    1.0000 </r>
       <r>  -25.0033    1.0000 </r>
       <r>  -25.0020    1.0000 </r>
       <r>  -24.8260    1.0000 </r>
       <r>  -24.8248    1.0000 </r>
       <r>  -23.4229    1.0000 </r>
       <r>  -23.4228    1.0000 </r>
       <r>  -20.4527    1.0000 </r>
       <r>  -20.4526    1.0000 </r>
       <r>  -20.0300    1.0000 </r>
       <r>  -20.0297    1.0000 </r>
       <r>  -19.7287    1.0000 </r>
       <r>  -19.7287    1.0000 </r>
       <r>  -19.4645    1.0000 </r>
       <r>  -19.4644    1.0000 </r>
       <r>  -18.7669    1.0000 </r>
       <r>  -18.7660    1.0000 </r>
       <r>  -18.7179    1.0000 </r>
       <r>  -18.7173    1.0000 </r>
       <r>  -18.3536    1.0000 </r>
       <r>  -18.3527    1.0000 </r>
       <r>  -17.5878    1.0000 </r>
       <r>  -17.5870    1.0000 </r>
       <r>  -16.2178    1.0000 </r>
       <r>  -16.2176    1.0000 </r>
       <r>  -12.4797    1.0000 </r>
       <r>  -12.4790    1.0000 </r>
       <r>  -12.3418    1.0000 </r>
       <r>  -12.3413    1.0000 </r>
       <r>  -12.3001    1.0000 </r>
       <r>  -12.2996    1.0000 </r>
       <r>  -11.6626    1.0000 </r>
       <r>  -11.6621    1.0000 </r>
       <r>  -11.5171    1.0000 </r>
       <r>  -11.5161    1.0000 </r>
       <r>  -11.0907    1.0000 </r>
       <r>  -11.0906    1.0000 </r>
       <r>  -10.7489    1.0000 </r>
       <r>  -10.7486    1.0000 </r>
       <r>  -10.3285    1.0000 </r>
       <r>  -10.3284    1.0000 </r>
       <r>  -10.2807    1.0000 </r>
       <r>  -10.2804    1.0000 </r>
       <r>   -9.9661    1.0000 </r>
       <r>   -9.9659    1.0000 </r>
       <r>   -9.3658    1.0000 </r>
       <r>   -9.3657    1.0000 </r>
       <r>   -9.2182    1.0000 </r>
       <r>   -9.2181    1.0000 </r>
       <r>   -9.1643    1.0000 </r>
       <r>   -9.1642    1.0000 </r>
       <r>   -8.5738    1.0000 </r>
       <r>   -8.5735    1.0000 </r>
       <r>   -8.2219    1.0000 </r>
       <r>   -8.2215    1.0000 </r>
       <r>   -8.1296    1.0000 </r>
       <r>   -8.1295    1.0000 </r>
       <r>   -7.7419    1.0000 </r>
       <r>   -7.7414    1.0000 </r>
       <r>   -7.3339    1.0000 </r>
       <r>   -7.3334    1.0000 </r>
       <r>   -7.1506    1.0000 </r>
       <r>   -7.1502    1.0000 </r>
       <r>   -7.0237    1.0000 </r>
       <r>   -7.0235    1.0000 </r>
       <r>   -6.8360    1.0000 </r>
       <r>   -6.8357    1.0000 </r>
       <r>   -6.6521    1.0000 </r>
       <r>   -6.6519    1.0000 </r>
       <r>   -6.6349    1.0000 </r>
       <r>   -6.6348    1.0000 </r>
       <r>   -6.3700    1.0000 </r>
       <r>   -6.3699    1.0000 </r>
       <r>   -6.3425    1.0000 </r>
       <r>   -6.3421    1.0000 </r>
       <r>   -6.1866    1.0000 </r>
       <r>   -6.1863    1.0000 </r>
       <r>   -6.0235    1.0000 </r>
       <r>   -6.0233    1.0000 </r>
       <r>   -5.8312    1.0000 </r>
       <r>   -5.8310    1.0000 </r>
       <r>   -5.3808    1.0000 </r>
       <r>   -5.3799    1.0000 </r>
       <r>   -5.2791    1.0000 </r>
       <r>   -5.2790    1.0000 </r>
       <r>   -5.2419    1.0000 </r>
       <r>   -5.2417    1.0000 </r>
       <r>   -5.2123    1.0000 </r>
       <r>   -5.2122    1.0000 </r>
       <r>   -5.1234    1.0000 </r>
       <r>   -5.1230    1.0000 </r>
       <r>   -5.0642    1.0000 </r>
       <r>   -5.0638    1.0000 </r>
       <r>   -4.9256    1.0000 </r>
       <r>   -4.9253    1.0000 </r>
       <r>   -4.6581    1.0000 </r>
       <r>   -4.6579    1.0000 </r>
       <r>   -4.4344    1.0000 </r>
       <r>   -4.4339    1.0000 </r>
       <r>   -4.0012    1.0000 </r>
       <r>   -4.0009    1.0000 </r>
       <r>   -3.6105    1.0000 </r>
       <r>   -3.6100    1.0000 </r>
       <r>   -3.2518    1.0000 </r>
       <r>   -3.2515    1.0000 </r>
       <r>   -3.0681    1.0000 </r>
       <r>   -3.0678    1.0000 </r>
       <r>   -2.7916    1.0000 </r>
       <r>   -2.7915    1.0000 </r>
       <r>   -0.3722    1.0000 </r>
       <r>   -0.3714    1.0000 </r>
       <r>   -0.2865    1.0000 </r>
       <r>   -0.2861    1.0000 </r>
       <r>   -0.1676    1.0000 </r>
       <r>   -0.1671    1.0000 </r>
       <r>   -0.0436    1.0000 </r>
       <r>   -0.0431    1.0000 </r>
       <r>    0.1732    1.0000 </r>
       <r>    0.1738    1.0000 </r>
       <r>    0.3170    1.0000 </r>
       <r>    0.3176    1.0000 </r>
       <r>    0.3694    1.0000 </r>
       <r>    0.3698    1.0000 </r>
       <r>    0.5548    1.0000 </r>
       <r>    0.5552    1.0000 </r>
       <r>    0.8417    1.0000 </r>
       <r>    0.8419    1.0000 </r>
       <r>    0.9484    1.0000 </r>
       <r>    0.9485    1.0000 </r>
       <r>    1.0774    1.0000 </r>
       <r>    1.0778    1.0000 </r>
       <r>    1.1805    1.0000 </r>
       <r>    1.1809    1.0000 </r>
       <r>    1.2346    1.0000 </r>
       <r>    1.2349    1.0000 </r>
       <r>    1.7909    1.0000 </r>
       <r>    1.7912    1.0000 </r>
       <r>    1.9528    1.0000 </r>
       <r>    1.9530    1.0000 </r>
       <r>    2.1783    1.0000 </r>
       <r>    2.1784    1.0000 </r>
       <r>    2.2153    1.0000 </r>
       <r>    2.2153    1.0000 </r>
       <r>    2.3222    1.0000 </r>
       <r>    2.3223    1.0000 </r>
       <r>    2.7040    1.0000 </r>
       <r>    2.7041    1.0000 </r>
       <r>    2.9391    1.0000 </r>
       <r>    2.9393    1.0000 </r>
       <r>    3.2427    1.0000 </r>
       <r>    3.2427    1.0000 </r>
       <r>    3.3122    1.0000 </r>
       <r>    3.3123    1.0000 </r>
       <r>    3.5894    1.0000 </r>
       <r>    3.5895    1.0000 </r>
       <r>    4.3554    1.0000 </r>
       <r>    4.3555    1.0000 </r>
       <r>    6.3618    1.0000 </r>
       <r>    6.3626    1.0000 </r>
       <r>    6.9137    1.0000 </r>
       <r>    6.9142    1.0000 </r>
       <r>    7.1124    1.0000 </r>
       <r>    7.1133    1.0000 </r>
       <r>   -2.3728    0.0000 </r>
       <r>   -2.3722    0.0000 </r>
       <r>   -2.1935    0.0000 </r>
       <r>   -2.1933    0.0000 </r>
       <r>   -1.7615    0.0000 </r>
       <r>   -1.7613    0.0000 </r>
       <r>   -1.3070    0.0000 </r>
       <r>   -1.3062    0.0000 </r>
       <r>    0.2916    0.0000 </r>
       <r>    0.3049    0.0000 </r>
       <r>    2.2833    0.0000 </r>
       <r>    2.3206    0.0000 </r>
       <r>    2.4824    0.0000 </r>
       <r>    2.5716    0.0000 </r>
       <r>    4.3753    0.0000 </r>
       <r>    4.7721    0.0000 </r>
       <r>    4.7779    0.0000 </r>
       <r>    4.9287    0.0000 </r>
       <r>    6.1786    0.0000 </r>
       <r>    6.2710    0.0000 </r>
       <r>    6.3225    0.0000 </r>
       <r>    6.3554    0.0000 </r>
       <r>    6.3567    0.0000 </r>
       <r>    7.1014    0.0000 </r>
       <r>    7.1770    0.0000 </r>
       <r>    7.7183    0.0000 </r>
       <r>    7.7649    0.0000 </r>
       <r>    7.7652    0.0000 </r>
       <r>    8.4961    0.0000 </r>
       <r>    8.5146    0.0000 </r>
       <r>    8.6931    0.0000 </r>
       <r>    8.9780    0.0000 </r>
       <r>    8.9789    0.0000 </r>
       <r>    9.3140    0.0000 </r>
       <r>    9.8023    0.0000 </r>
       <r>   10.0281    0.0000 </r>
       <r>   11.1365    0.0000 </r>
       <r>   11.1534    0.0000 </r>
      </set>
      <set comment="kpoint 4">
       <r>  -39.6534    1.0000 </r>
       <r>  -39.6514    1.0000 </r>
       <r>  -39.5243    1.0000 </r>
       <r>  -39.5225    1.0000 </r>
       <r>  -39.4100    1.0000 </r>
       <r>  -39.4082    1.0000 </r>
       <r>  -39.3844    1.0000 </r>
       <r>  -39.3833    1.0000 </r>
       <r>  -39.2495    1.0000 </r>
       <r>  -39.2484    1.0000 </r>
       <r>  -39.0164    1.0000 </r>
       <r>  -39.0143    1.0000 </r>
       <r>  -38.3733    1.0000 </r>
       <r>  -38.3717    1.0000 </r>
       <r>  -38.3197    1.0000 </r>
       <r>  -38.3181    1.0000 </r>
       <r>  -38.0414    1.0000 </r>
       <r>  -38.0398    1.0000 </r>
       <r>  -26.5622    1.0000 </r>
       <r>  -26.5612    1.0000 </r>
       <r>  -26.3830    1.0000 </r>
       <r>  -26.3821    1.0000 </r>
       <r>  -26.2509    1.0000 </r>
       <r>  -26.2500    1.0000 </r>
       <r>  -25.3443    1.0000 </r>
       <r>  -25.3437    1.0000 </r>
       <r>  -25.3126    1.0000 </r>
       <r>  -25.3117    1.0000 </r>
       <r>  -25.0800    1.0000 </r>
       <r>  -25.0795    1.0000 </r>
       <r>  -25.0658    1.0000 </r>
       <r>  -25.0650    1.0000 </r>
       <r>  -25.0033    1.0000 </r>
       <r>  -25.0020    1.0000 </r>
       <r>  -24.8260    1.0000 </r>
       <r>  -24.8248    1.0000 </r>
       <r>  -23.4229    1.0000 </r>
       <r>  -23.4228    1.0000 </r>
       <r>  -20.4527    1.0000 </r>
       <r>  -20.4526    1.0000 </r>
       <r>  -20.0300    1.0000 </r>
       <r>  -20.0297    1.0000 </r>
       <r>  -19.7287    1.0000 </r>
       <r>  -19.7287    1.0000 </r>
       <r>  -19.4645    1.0000 </r>
       <r>  -19.4644    1.0000 </r>
       <r>  -18.7669    1.0000 </r>
       <r>  -18.7661    1.0000 </r>
       <r>  -18.7179    1.0000 </r>
       <r>  -18.7173    1.0000 </r>
       <r>  -18.3536    1.0000 </r>
       <r>  -18.3527    1.0000 </r>
       <r>  -17.5878    1.0000 </r>
       <r>  -17.5870    1.0000 </r>
       <r>  -16.2178    1.0000 </r>
       <r>  -16.2176    1.0000 </r>
       <r>  -12.4797    1.0000 </r>
       <r>  -12.4790    1.0000 </r>
       <r>  -12.3418    1.0000 </r>
       <r>  -12.3413    1.0000 </r>
       <r>  -12.3001    1.0000 </r>
       <r>  -12.2996    1.0000 </r>
       <r>  -11.6626    1.0000 </r>
       <r>  -11.6621    1.0000 </r>
       <r>  -11.5171    1.0000 </r>
       <r>  -11.5161    1.0000 </r>
       <r>  -11.0907    1.0000 </r>
[...]
       <r>    0.2523    0.0000 </r>
       <r>    1.7362    0.0000 </r>
       <r>    2.1010    0.0000 </r>
       <r>    2.3791    0.0000 </r>
       <r>    2.3864    0.0000 </r>
       <r>    3.2233    0.0000 </r>
       <r>    4.2536    0.0000 </r>
       <r>    5.2620    0.0000 </r>
       <r>    6.5462    0.0000 </r>
       <r>    6.6684    0.0000 </r>
       <r>    6.9814    0.0000 </r>
       <r>    7.1042    0.0000 </r>
       <r>    7.4697    0.0000 </r>
       <r>    7.5538    0.0000 </r>
       <r>    7.7780    0.0000 </r>
       <r>    8.1251    0.0000 </r>
       <r>    8.2160    0.0000 </r>
       <r>    8.9333    0.0000 </r>
       <r>    8.9487    0.0000 </r>
       <r>    9.1348    0.0000 </r>
       <r>    9.1931    0.0000 </r>
       <r>    9.2852    0.0000 </r>
       <r>    9.3077    0.0000 </r>
       <r>    9.3577    0.0000 </r>
       <r>    9.7274    0.0000 </r>
       <r>   10.2395    0.0000 </r>
       <r>   10.7555    0.0000 </r>
       <r>   11.0681    0.0000 </r>
      </set>
     </set>
    </set>
   </array>
  </eigenvalues>
  <separator name="orbital magnetization" >
   <v name="MAGDIPOLOUT">      0.00000000      0.00000000      0.00000000</v>
  </separator>
  <dos>
   <i name="efermi">      3.13275398 </i>
   <total>
    <array>
     <dimension dim="1">gridpoints</dimension>
     <dimension dim="2">spin</dimension>
     <field>energy</field>
     <field>total</field>
     <field>integrated</field>
     <set>
      <set comment="spin 1">
       <r>   -42.2376     0.0000     0.0000 </r>
       <r>   -42.0509     0.0000     0.0000 </r>
       <r>   -41.8641     0.0000     0.0000 </r>
       <r>   -41.6774     0.0000     0.0000 </r>
       <r>   -41.4907     0.0000     0.0000 </r>
       <r>   -41.3040     0.0000     0.0000 </r>
       <r>   -41.1173     0.0000     0.0000 </r>
       <r>   -40.9305     0.0000     0.0000 </r>
       <r>   -40.7438     0.0000     0.0000 </r>
       <r>   -40.5571     0.0000     0.0000 </r>
       <r>   -40.3704     0.0000     0.0000 </r>
       <r>   -40.1837     0.0000     0.0000 </r>
       <r>   -39.9970     0.0000     0.0000 </r>
       <r>   -39.8102     0.0021     0.0004 </r>
       <r>   -39.6235    16.4841     3.0783 </r>
       <r>   -39.4368    32.9288     9.2267 </r>
       <r>   -39.2501    47.1509    18.0307 </r>
       <r>   -39.0634    12.1998    20.3086 </r>
       <r>   -38.8766    19.7667    23.9994 </r>
       <r>   -38.6899     0.0032    24.0000 </r>
       <r>   -38.5032     0.0023    24.0004 </r>
       <r>   -38.3165    31.4760    29.8776 </r>
       <r>   -38.1298    11.4948    32.0239 </r>
       <r>   -37.9430    21.2338    35.9886 </r>
       <r>   -37.7563     0.0608    36.0000 </r>
       <r>   -37.5696     0.0000    36.0000 </r>
       <r>   -37.3829     0.0000    36.0000 </r>
       <r>   -37.1962     0.0000    36.0000 </r>
       <r>   -37.0095     0.0000    36.0000 </r>
       <r>   -36.8227     0.0000    36.0000 </r>
       <r>   -36.6360     0.0000    36.0000 </r>
       <r>   -36.4493     0.0000    36.0000 </r>
       <r>   -36.2626     0.0000    36.0000 </r>
       <r>   -36.0759     0.0000    36.0000 </r>
       <r>   -35.8891     0.0000    36.0000 </r>
       <r>   -35.7024     0.0000    36.0000 </r>
       <r>   -35.5157     0.0000    36.0000 </r>
       <r>   -35.3290     0.0000    36.0000 </r>
       <r>   -35.1423     0.0000    36.0000 </r>
       <r>   -34.9555     0.0000    36.0000 </r>
       <r>   -34.7688     0.0000    36.0000 </r>
       <r>   -34.5821     0.0000    36.0000 </r>
       <r>   -34.3954     0.0000    36.0000 </r>
       <r>   -34.2087     0.0000    36.0000 </r>
       <r>   -34.0220     0.0000    36.0000 </r>
       <r>   -33.8352     0.0000    36.0000 </r>
       <r>   -33.6485     0.0000    36.0000 </r>
       <r>   -33.4618     0.0000    36.0000 </r>
       <r>   -33.2751     0.0000    36.0000 </r>
       <r>   -33.0884     0.0000    36.0000 </r>
       <r>   -32.9016     0.0000    36.0000 </r>
       <r>   -32.7149     0.0000    36.0000 </r>
       <r>   -32.5282     0.0000    36.0000 </r>
       <r>   -32.3415     0.0000    36.0000 </r>
       <r>   -32.1548     0.0000    36.0000 </r>
       <r>   -31.9680     0.0000    36.0000 </r>
       <r>   -31.7813     0.0000    36.0000 </r>
       <r>   -31.5946     0.0000    36.0000 </r>
       <r>   -31.4079     0.0000    36.0000 </r>
       <r>   -31.2212     0.0000    36.0000 </r>
       <r>   -31.0345     0.0000    36.0000 </r>
       <r>   -30.8477     0.0000    36.0000 </r>
       <r>   -30.6610     0.0000    36.0000 </r>
       <r>   -30.4743     0.0000    36.0000 </r>
       <r>   -30.2876     0.0000    36.0000 </r>
       <r>   -30.1009     0.0000    36.0000 </r>
       <r>   -29.9141     0.0000    36.0000 </r>
       <r>   -29.7274     0.0000    36.0000 </r>
       <r>   -29.5407     0.0000    36.0000 </r>
       <r>   -29.3540     0.0000    36.0000 </r>
       <r>   -29.1673     0.0000    36.0000 </r>
       <r>   -28.9805     0.0000    36.0000 </r>
       <r>   -28.7938     0.0000    36.0000 </r>
       <r>   -28.6071     0.0000    36.0000 </r>
       <r>   -28.4204     0.0000    36.0000 </r>
       <r>   -28.2337     0.0000    36.0000 </r>
       <r>   -28.0470     0.0000    36.0000 </r>
       <r>   -27.8602     0.0000    36.0000 </r>
       <r>   -27.6735     0.0000    36.0000 </r>
       <r>   -27.4868     0.0000    36.0000 </r>
       <r>   -27.3001     0.0000    36.0000 </r>
       <r>   -27.1134     0.0000    36.0000 </r>
       <r>   -26.9266     0.0000    36.0000 </r>
       <r>   -26.7399     0.0000    36.0000 </r>
       <r>   -26.5532    12.7406    38.3789 </r>
       <r>   -26.3665    23.1167    42.6952 </r>
       <r>   -26.1798    27.9250    47.9093 </r>
       <r>   -25.9930     0.4855    48.0000 </r>
       <r>   -25.8063     0.0000    48.0000 </r>
       <r>   -25.6196     0.0000    48.0000 </r>
       <r>   -25.4329     0.5712    48.1066 </r>
       <r>   -25.2462    40.9110    55.7455 </r>
       <r>   -25.0595    30.3338    61.4094 </r>
       <r>   -24.8727    36.7066    68.2632 </r>
       <r>   -24.6860    20.0085    71.9992 </r>
       <r>   -24.4993     0.0045    72.0000 </r>
       <r>   -24.3126     0.0000    72.0000 </r>
       <r>   -24.1259     0.0000    72.0000 </r>
       <r>   -23.9391     0.0000    72.0000 </r>
       <r>   -23.7524     0.0000    72.0000 </r>
       <r>   -23.5657     0.0006    72.0001 </r>
       <r>   -23.3790    19.1645    75.5785 </r>
       <r>   -23.1923     2.2575    76.0000 </r>
       <r>   -23.0055     0.0000    76.0000 </r>
       <r>   -22.8188     0.0000    76.0000 </r>
       <r>   -22.6321     0.0000    76.0000 </r>
       <r>   -22.4454     0.0000    76.0000 </r>
       <r>   -22.2587     0.0000    76.0000 </r>
       <r>   -22.0720     0.0000    76.0000 </r>
       <r>   -21.8852     0.0000    76.0000 </r>
       <r>   -21.6985     0.0000    76.0000 </r>
       <r>   -21.5118     0.0000    76.0000 </r>
       <r>   -21.3251     0.0000    76.0000 </r>
       <r>   -21.1384     0.0000    76.0000 </r>
       <r>   -20.9516     0.0000    76.0000 </r>
       <r>   -20.7649     1.0110    76.1888 </r>
       <r>   -20.5782     4.3464    77.0003 </r>
       <r>   -20.3915    10.2315    78.9107 </r>
       <r>   -20.2048     1.5074    79.1922 </r>
       <r>   -20.0180    16.7788    82.3251 </r>
       <r>   -19.8313    12.2788    84.6178 </r>
       <r>   -19.6446    13.3429    87.1092 </r>
       <r>   -19.4579    17.1491    90.3112 </r>
       <r>   -19.2712     9.0445    92.0000 </r>
       <r>   -19.0845     0.0000    92.0000 </r>
       <r>   -18.8977     4.9438    92.9231 </r>
       <r>   -18.7110    22.0004    97.0310 </r>
       <r>   -18.5243    15.2344    99.8755 </r>
       <r>   -18.3376    15.7344   102.8134 </r>
       <r>   -18.1509     6.3548   104.0000 </r>
       <r>   -17.9641     0.0000   104.0000 </r>
       <r>   -17.7774     0.0000   104.0000 </r>
       <r>   -17.5907     8.2120   105.5333 </r>
       <r>   -17.4040    13.2101   107.9999 </r>
       <r>   -17.2173     0.0004   108.0000 </r>
       <r>   -17.0305     0.0000   108.0000 </r>
       <r>   -16.8438     0.0000   108.0000 </r>
       <r>   -16.6571     0.0000   108.0000 </r>
       <r>   -16.4704     0.0000   108.0000 </r>
       <r>   -16.2837     0.4856   108.0907 </r>
       <r>   -16.0970    20.9185   111.9966 </r>
       <r>   -15.9102     0.0185   112.0000 </r>
       <r>   -15.7235     0.0000   112.0000 </r>
       <r>   -15.5368     0.0000   112.0000 </r>
       <r>   -15.3501     0.0000   112.0000 </r>
       <r>   -15.1634     0.0000   112.0000 </r>
       <r>   -14.9766     0.0000   112.0000 </r>
       <r>   -14.7899     0.0000   112.0000 </r>
       <r>   -14.6032     0.0000   112.0000 </r>
       <r>   -14.4165     0.0000   112.0000 </r>
       <r>   -14.2298     0.0000   112.0000 </r>
       <r>   -14.0431     0.0000   112.0000 </r>
       <r>   -13.8563     0.0000   112.0000 </r>
       <r>   -13.6696     0.0000   112.0000 </r>
       <r>   -13.4829     0.0000   112.0000 </r>
       <r>   -13.2962     0.0000   112.0000 </r>
       <r>   -13.1095     0.0000   112.0000 </r>
       <r>   -12.9227     0.0000   112.0000 </r>
       <r>   -12.7360     0.0002   112.0000 </r>
       <r>   -12.5493     9.1957   113.7171 </r>
       <r>   -12.3626    21.9245   117.8108 </r>
       <r>   -12.1759    26.7191   122.7997 </r>
       <r>   -11.9891     6.4340   124.0011 </r>
       <r>   -11.8024     5.2781   124.9866 </r>
       <r>   -11.6157    18.9742   128.5294 </r>
       <r>   -11.4290    23.4852   132.9146 </r>
       <r>   -11.2423     0.4577   133.0000 </r>
       <r>   -11.0556     8.9385   134.6690 </r>
       <r>   -10.8688     7.6013   136.0883 </r>
       <r>   -10.6821    15.2935   138.9439 </r>
       <r>   -10.4954     2.2553   139.3650 </r>
       <r>   -10.3087    21.4170   143.3639 </r>
       <r>   -10.1220    20.8198   147.2514 </r>
       <r>    -9.9352    13.4361   149.7602 </r>
       <r>    -9.7485    11.7665   151.9572 </r>
       <r>    -9.5618     0.2293   152.0000 </r>
       <r>    -9.3751     9.7460   153.8198 </r>
       <r>    -9.1884    41.7086   161.6075 </r>
       <r>    -9.0016    12.8135   164.0001 </r>
       <r>    -8.8149     4.9927   164.9323 </r>
       <r>    -8.6282     3.2316   165.5357 </r>
       <r>    -8.4415    13.3394   168.0264 </r>
       <r>    -8.2548     8.9489   169.6974 </r>
       <r>    -8.0681    31.6662   175.6100 </r>
       <r>    -7.8813     2.0887   176.0000 </r>
       <r>    -7.6946    11.9234   178.2264 </r>
       <r>    -7.5079    16.4455   181.2970 </r>
       <r>    -7.3212    11.1856   183.3856 </r>
       <r>    -7.1345    20.7157   187.2536 </r>
       <r>    -6.9477    23.1750   191.5808 </r>
       <r>    -6.7610    23.7949   196.0238 </r>
       <r>    -6.5743    39.2186   203.3466 </r>
       <r>    -6.3876    19.6342   207.0127 </r>
       <r>    -6.2009    37.3295   213.9828 </r>
       <r>    -6.0141    13.4914   216.5019 </r>
       <r>    -5.8274    19.7346   220.1867 </r>
       <r>    -5.6407    10.9896   222.2387 </r>
       <r>    -5.4540    10.1841   224.1403 </r>
       <r>    -5.2673    48.9598   233.2820 </r>
       <r>    -5.0806    49.5254   242.5293 </r>
       <r>    -4.8938    27.6829   247.6982 </r>
       <r>    -4.7071    16.4902   250.7772 </r>
       <r>    -4.5204    13.2666   253.2544 </r>
       <r>    -4.3337    24.4421   257.8181 </r>
       <r>    -4.1470     8.2855   259.3652 </r>
       <r>    -3.9602    21.9230   263.4586 </r>
       <r>    -3.7735     2.9639   264.0120 </r>
       <r>    -3.5868    13.9839   266.6231 </r>
       <r>    -3.4001    11.1788   268.7104 </r>
       <r>    -3.2134    11.0836   270.7799 </r>
       <r>    -3.0266    10.0057   272.6482 </r>
       <r>    -2.8399    13.5950   275.1866 </r>
       <r>    -2.6532    20.3952   278.9948 </r>
       <r>    -2.4665    11.6306   281.1664 </r>
       <r>    -2.2798    21.9806   285.2706 </r>
       <r>    -2.0931    11.9275   287.4977 </r>
       <r>    -1.9063     0.9544   287.6759 </r>
       <r>    -1.7196     3.4702   288.3239 </r>
       <r>    -1.5329     7.6369   289.7498 </r>
       <r>    -1.3462     3.8459   290.4679 </r>
       <r>    -1.1595     6.8032   291.7382 </r>
       <r>    -0.9727     1.2789   291.9770 </r>
       <r>    -0.7860    23.1578   296.3010 </r>
       <r>    -0.5993    23.0639   300.6075 </r>
       <r>    -0.4126    27.2916   305.7033 </r>
       <r>    -0.2259    23.8454   310.1557 </r>
       <r>    -0.0391    29.1537   315.5993 </r>
       <r>     0.1476    17.9440   318.9497 </r>
       <r>     0.3343    38.0499   326.0544 </r>
       <r>     0.5210    25.0019   330.7227 </r>
       <r>     0.7077    21.8074   334.7945 </r>
       <r>     0.8944    23.7841   339.2355 </r>
       <r>     1.0812    21.8887   343.3225 </r>
       <r>     1.2679    37.4600   350.3170 </r>
       <r>     1.4546    17.4074   353.5673 </r>
       <r>     1.6413    11.9892   355.8059 </r>
       <r>     1.8280    20.3687   359.6091 </r>
       <r>     2.0148    27.7538   364.7913 </r>
       <r>     2.2015    25.4704   369.5471 </r>
       <r>     2.3882    29.8951   375.1290 </r>
       <r>     2.5749    17.0186   378.3067 </r>
       <r>     2.7616    23.9493   382.7785 </r>
       <r>     2.9484    15.1531   385.6079 </r>
       <r>     3.1351    13.0729   388.0488 </r>
       <r>     3.3218    26.4545   392.9884 </r>
       <r>     3.5085    15.5166   395.8856 </r>
       <r>     3.6952    16.9980   399.0595 </r>
       <r>     3.8819     9.5347   400.8398 </r>
       <r>     4.0687     5.2290   401.8161 </r>
       <r>     4.2554    13.4387   404.3254 </r>
       <r>     4.4421    18.0416   407.6941 </r>
       <r>     4.6288     2.1476   408.0951 </r>
       <r>     4.8155     8.9983   409.7752 </r>
       <r>     5.0023     3.9064   410.5046 </r>
       <r>     5.1890     5.8046   411.5884 </r>
       <r>     5.3757     7.2809   412.9479 </r>
       <r>     5.5624     2.0727   413.3349 </r>
       <r>     5.7491     3.1892   413.9304 </r>
       <r>     5.9359     3.0476   414.4995 </r>
       <r>     6.1226     2.1845   414.9074 </r>
       <r>     6.3093    13.5836   417.4437 </r>
       <r>     6.4960    20.7901   421.3256 </r>
       <r>     6.6827    11.4231   423.4585 </r>
       <r>     6.8694     6.9485   424.7559 </r>
       <r>     7.0562    20.9443   428.6666 </r>
       <r>     7.2429    22.0861   432.7905 </r>
       <r>     7.4296    11.4331   434.9253 </r>
       <r>     7.6163     5.7804   436.0046 </r>
       <r>     7.8030    16.6190   439.1076 </r>
       <r>     7.9898    11.4036   441.2369 </r>
       <r>     8.1765     2.8975   441.7779 </r>
       <r>     8.3632     3.8374   442.4944 </r>
       <r>     8.5499     2.4097   442.9444 </r>
       <r>     8.7366     4.9007   443.8594 </r>
       <r>     8.9234     6.6998   445.1104 </r>
       <r>     9.1101    10.8320   447.1329 </r>
       <r>     9.2968    10.2039   449.0382 </r>
       <r>     9.4835     7.0010   450.3454 </r>
       <r>     9.6702     5.8354   451.4350 </r>
       <r>     9.8569     3.5288   452.0939 </r>
       <r>    10.0437    13.0087   454.5229 </r>
       <r>    10.2304    10.2022   456.4278 </r>
       <r>    10.4171    12.7731   458.8128 </r>
       <r>    10.6038     8.2308   460.3496 </r>
       <r>    10.7905     3.6436   461.0299 </r>
       <r>    10.9773     1.7225   461.3516 </r>
       <r>    11.1640     8.9950   463.0311 </r>
       <r>    11.3507     5.1890   464.0000 </r>
       <r>    11.5374     0.0002   464.0000 </r>
       <r>    11.7241     0.0000   464.0000 </r>
       <r>    11.9109     0.0000   464.0000 </r>
       <r>    12.0976     0.0000   464.0000 </r>
       <r>    12.2843     0.0000   464.0000 </r>
       <r>    12.4710     0.0000   464.0000 </r>
       <r>    12.6577     0.0000   464.0000 </r>
       <r>    12.8444     0.0000   464.0000 </r>
       <r>    13.0312     0.0000   464.0000 </r>
       <r>    13.2179     0.0000   464.0000 </r>
       <r>    13.4046     0.0000   464.0000 </r>
       <r>    13.5913     0.0000   464.0000 </r>
       <r>    13.7780     0.0000   464.0000 </r>
      </set>
     </set>
    </array>
   </total>
  </dos>
 </calculation>
 <structure name="finalpos" >
  <crystal>
   <varray name="basis" >
    <v>      19.57216263       0.00000000       0.00000000 </v>
    <v>       0.00000000       7.16060400       0.00000000 </v>
    <v>       0.00000000       1.38837625      10.28371310 </v>
   </varray>
   <i name="volume">   1441.24702706 </i>
   <varray name="rec_basis" >
    <v>       0.05109297       0.00000000       0.00000000 </v>
    <v>       0.00000000       0.13965302      -0.01885418 </v>
    <v>       0.00000000       0.00000000       0.09724114 </v>
   </varray>
  </crystal>
  <varray name="positions" >
   <v>       0.40520199       0.76872197       0.88459999 </v>
   <v>       0.09479800       0.26872201       0.88459999 </v>
   <v>       0.90520199       0.73127799       0.11540000 </v>
   <v>       0.59479801       0.23127799       0.11540000 </v>
   <v>       0.82768498       0.13471601       0.57874697 </v>
   <v>       0.67227999       0.03741600       0.57922697 </v>
   <v>       0.17228000       0.46258400       0.42077301 </v>
   <v>       0.67231502       0.63471591       0.57874697 </v>
   <v>       0.33012598       0.21310298       0.17458900 </v>
   <v>       0.66987399       0.78689696       0.82541108 </v>
   <v>       0.32768500       0.36528399       0.42125301 </v>
   <v>       0.16987399       0.71310305       0.17458900 </v>
   <v>       0.17231500       0.86528399       0.42125301 </v>
   <v>       0.83012596       0.28689700       0.82541108 </v>
   <v>       0.82771996       0.53741600       0.57922697 </v>
   <v>       0.32771999       0.96258404       0.42077301 </v>
   <v>       0.76231498       0.81748499       0.67325999 </v>
   <v>       0.26231500       0.68251504       0.32674001 </v>
   <v>       0.73768502       0.31748499       0.67325999 </v>
   <v>       0.23768500       0.18251499       0.32674001 </v>
   <v>       0.75008303       0.01093099       0.95642505 </v>
   <v>       0.41396401       0.13764700       0.55523301 </v>
   <v>       0.74991697       0.51093096       0.95642505 </v>
   <v>       0.07943200       0.94937701       0.24077501 </v>
   <v>       0.59857101       0.74086996       0.05725900 </v>
   <v>       0.42013901       0.94979104       0.23899301 </v>
   <v>       0.90142904       0.24087000       0.05725900 </v>
   <v>       0.75017001       0.12530800       0.36914400 </v>
   <v>       0.25008301       0.48906903       0.04357500 </v>
   <v>       0.40142899       0.25912998       0.94274097 </v>
   <v>       0.08603600       0.63764695       0.55523301 </v>
   <v>       0.57943200       0.55062302       0.75922504 </v>
   <v>       0.24991699       0.98906899       0.04357500 </v>
   <v>       0.92056795       0.05062298       0.75922504 </v>
   <v>       0.58603604       0.86235308       0.44476701 </v>
   <v>       0.91396401       0.36235298       0.44476701 </v>
   <v>       0.09857100       0.75912994       0.94274097 </v>
   <v>       0.24982999       0.87469203       0.63085600 </v>
   <v>       0.92013897       0.55020899       0.76100701 </v>
   <v>       0.10100399       0.14254899       0.53351202 </v>
   <v>       0.57986099       0.05020900       0.76100701 </v>
   <v>       0.74982999       0.62530800       0.36914400 </v>
   <v>       0.42056800       0.44937697       0.24077501 </v>
   <v>       0.89899595       0.85745102       0.46648801 </v>
   <v>       0.60100400       0.35745098       0.46648801 </v>
   <v>       0.25016998       0.37469200       0.63085600 </v>
   <v>       0.39899600       0.64254901       0.53351202 </v>
   <v>       0.07986100       0.44979101       0.23899301 </v>
  </varray>
 </structure>
</modeling>
