       N       E                     dE             d eps       ncg     rms          rms(c)
DAV:   1    -0.235561014945E+03   -0.23556E+03   -0.10686E+03 17600   0.744E+01    0.826E+01
DAV:   2    -0.242716522968E+03   -0.71555E+01   -0.18905E+02 18616   0.332E+01    0.218E+01
DAV:   3    -0.242003634912E+03    0.71289E+00   -0.13929E+01 18768   0.102E+01    0.119E+01
DAV:   4    -0.242711899229E+03   -0.70826E+00   -0.64677E+00 20048   0.976E+00    0.862E+00
DAV:   5    -0.241949432422E+03    0.76247E+00   -0.59607E+00 19624   0.754E+00    0.265E+00
DAV:   6    -0.241814441924E+03    0.13499E+00   -0.55294E-01 18248   0.299E+00    0.152E+00
DAV:   7    -0.241818735974E+03   -0.42940E-02   -0.81854E-02 19568   0.125E+00    0.118E+00
DAV:   8    -0.241816266180E+03    0.24698E-02   -0.25206E-02 18752   0.773E-01    0.556E-01
DAV:   9    -0.241816702315E+03   -0.43613E-03   -0.14055E-02 18872   0.462E-01    0.209E-01
DAV:  10    -0.241816797792E+03   -0.95477E-04   -0.25164E-03 18016   0.220E-01    0.104E-01
DAV:  11    -0.241816931050E+03   -0.13326E-03   -0.51000E-04 18208   0.989E-02    0.632E-02
DAV:  12    -0.241816936031E+03   -0.49810E-05   -0.17872E-04 16848   0.573E-02    0.172E-02
DAV:  13    -0.241816944876E+03   -0.88456E-05   -0.24216E-05  9408   0.168E-02
   1 F= -.24181694E+03 E0= -.24180927E+03  d E =-.153498E-01
