 vasp.5.4.4.18Apr17-6-g9f103f2a35 (build Aug 03 2021 19:59:50) complex          
  
 executed on             LinuxIFC date 2021.08.29  06:37:41
 running on   24 total cores
 distrk:  each k-point on   24 cores,    1 groups
 distr:  one band on NCORES_PER_BAND=   6 cores,    4 groups


--------------------------------------------------------------------------------------------------------


 INCAR:
 POTCAR:    PAW_PBE Cs_sv 08Apr2002               
 POTCAR:    PAW_PBE Nb_pv 08Apr2002               
 POTCAR:    PAW_PBE S 06Sep2000                   
 POTCAR:    PAW_PBE Br 06Sep2000                  
 POTCAR:    PAW_PBE Cs_sv 08Apr2002               
   VRHFIN =Cs: 5s5p6s                                                           
   LEXCH  = PE                                                                  
   EATOM  =   555.6835 eV,   40.8416 Ry                                         
                                                                                
   TITEL  = PAW_PBE Cs_sv 08Apr2002                                             
   LULTRA =        F    use ultrasoft PP ?                                      
   IUNSCR =        1    unscreen: 0-lin 1-nonlin 2-no                           
   RPACOR =    2.200    partial core radius                                     
   POMASS =  132.900; ZVAL   =    9.000    mass and valenz                      
   RCORE  =    2.500    outmost cutoff radius                                   
   RWIGS  =    2.500; RWIGS  =    1.323    wigner-seitz radius (au A)           
   ENMAX  =  220.318; ENMIN  =  165.238 eV                                      
   RCLOC  =    2.207    cutoff for local pot                                    
   LCOR   =        T    correct aug charges                                     
   LPAW   =        T    paw PP                                                  
   EAUG   =  407.933                                                            
   DEXC   =    0.000                                                            
   RMAX   =    2.554    core radius for proj-oper                               
   RAUG   =    1.300    factor for augmentation sphere                          
   RDEP   =    2.590    radius for radial grids                                 
   RDEPT  =    2.117    core radius for aug-charge                              
                                                                                
   Atomic configuration                                                         
   13 entries                                                                   
     n  l   j            E        occ.                                          
     1  0  0.50    -35790.1377   2.0000                                         
     2  0  0.50     -5613.6201   2.0000                                         
     2  1  1.50     -5035.0101   6.0000                                         
     3  0  0.50     -1167.0767   2.0000                                         
     3  1  1.50      -980.9754   6.0000                                         
     3  2  2.50      -708.0703  10.0000                                         
     4  0  0.50      -220.2386   2.0000                                         
     4  1  1.50      -160.7596   6.0000                                         
     4  2  2.50       -74.2354  10.0000                                         
     5  0  0.50       -26.7287   2.0000                                         
     6  0  0.50        -2.0862   1.0000                                         
     5  1  1.50       -13.5159   6.0000                                         
     5  2  2.50        -0.4136   0.0000                                         
   Description                                                                  
     l       E           TYP  RCUT    TYP  RCUT                                 
     0    -26.7287425     23  1.900                                             
     0     -2.0862306     23  1.900                                             
     1    -13.5158719     23  2.500                                             
     1     -2.7211652     23  2.500                                             
     2     -0.4136171     23  2.500                                             
  local pseudopotential read in
  partial core-charges read in
  partial kinetic energy density read in
  atomic valenz-charges read in
  non local Contribution for L=           0  read in
    real space projection operators read in
  non local Contribution for L=           0  read in
    real space projection operators read in
  non local Contribution for L=           1  read in
    real space projection operators read in
  non local Contribution for L=           1  read in
    real space projection operators read in
  non local Contribution for L=           2  read in
    real space projection operators read in
    PAW grid and wavefunctions read in
 
   number of l-projection  operators is LMAX  =           5
   number of lm-projection operators is LMMAX =          13
 
 POTCAR:    PAW_PBE Nb_pv 08Apr2002               
   VRHFIN =Nb: 4p5s4d                                                           
   LEXCH  = PE                                                                  
   EATOM  =  1043.3917 eV,   76.6871 Ry                                         
                                                                                
   TITEL  = PAW_PBE Nb_pv 08Apr2002                                             
   LULTRA =        F    use ultrasoft PP ?                                      
   IUNSCR =        1    unscreen: 0-lin 1-nonlin 2-no                           
   RPACOR =    2.200    partial core radius                                     
   POMASS =   92.000; ZVAL   =   11.000    mass and valenz                      
   RCORE  =    2.750    outmost cutoff radius                                   
   RWIGS  =    2.840; RWIGS  =    1.503    wigner-seitz radius (au A)           
   ENMAX  =  208.608; ENMIN  =  156.456 eV                                      
   RCLOC  =    2.201    cutoff for local pot                                    
   LCOR   =        T    correct aug charges                                     
   LPAW   =        T    paw PP                                                  
   EAUG   =  355.067                                                            
   DEXC   =    0.000                                                            
   RMAX   =    2.804    core radius for proj-oper                               
   RAUG   =    1.300    factor for augmentation sphere                          
   RDEP   =    2.776    radius for radial grids                                 
   RDEPT  =    2.198    core radius for aug-charge                              
                                                                                
   Atomic configuration                                                         
   11 entries                                                                   
     n  l   j            E        occ.                                          
     1  0  0.50    -18805.2456   2.0000                                         
     2  0  0.50     -2630.2869   2.0000                                         
     2  1  1.50     -2348.4045   6.0000                                         
     3  0  0.50      -438.8756   2.0000                                         
     3  1  1.50      -346.7587   6.0000                                         
     3  2  2.50      -196.2559  10.0000                                         
     4  0  0.50       -58.3859   2.0000                                         
     4  1  1.50       -34.5141   6.0000                                         
     4  2  2.50        -3.0408   4.0000                                         
     5  0  0.50        -3.9816   1.0000                                         
     4  3  2.50        -1.3606   0.0000                                         
   Description                                                                  
     l       E           TYP  RCUT    TYP  RCUT                                 
     1    -34.5140617     23  2.600                                             
     1     -1.3605826     23  2.600                                             
     2     -3.0407924     23  2.600                                             
     2     -1.4463597     23  2.600                                             
     0     -3.9816219     23  2.750                                             
     0     20.4087390     23  2.750                                             
  local pseudopotential read in
  partial core-charges read in
  partial kinetic energy density read in
  atomic valenz-charges read in
  non local Contribution for L=           1  read in
    real space projection operators read in
  non local Contribution for L=           1  read in
    real space projection operators read in
  non local Contribution for L=           2  read in
    real space projection operators read in
  non local Contribution for L=           2  read in
    real space projection operators read in
  non local Contribution for L=           0  read in
    real space projection operators read in
  non local Contribution for L=           0  read in
    real space projection operators read in
    PAW grid and wavefunctions read in
 
   number of l-projection  operators is LMAX  =           6
   number of lm-projection operators is LMMAX =          18
 
 POTCAR:    PAW_PBE S 06Sep2000                   
   VRHFIN =S : s2p4                                                             
   LEXCH  = PE                                                                  
   EATOM  =   276.8230 eV,   20.3459 Ry                                         
                                                                                
   TITEL  = PAW_PBE S 06Sep2000                                                 
   LULTRA =        F    use ultrasoft PP ?                                      
   IUNSCR =        1    unscreen: 0-lin 1-nonlin 2-no                           
   RPACOR =    1.500    partial core radius                                     
   POMASS =   32.066; ZVAL   =    6.000    mass and valenz                      
   RCORE  =    1.900    outmost cutoff radius                                   
   RWIGS  =    2.200; RWIGS  =    1.164    wigner-seitz radius (au A)           
   ENMAX  =  258.689; ENMIN  =  194.016 eV                                      
   ICORE  =        2    local potential                                         
   LCOR   =        T    correct aug charges                                     
   LPAW   =        T    paw PP                                                  
   EAUG   =  335.092                                                            
   DEXC   =    0.000                                                            
   RMAX   =    1.942    core radius for proj-oper                               
   RAUG   =    1.300    factor for augmentation sphere                          
   RDEP   =    1.954    radius for radial grids                                 
   RDEPT  =    1.744    core radius for aug-charge                              
                                                                                
   Atomic configuration                                                         
    6 entries                                                                   
     n  l   j            E        occ.                                          
     1  0  0.50     -2405.8406   2.0000                                         
     2  0  0.50      -211.7007   2.0000                                         
     2  1  1.50      -156.4958   6.0000                                         
     3  0  0.50       -17.2562   2.0000                                         
     3  1  0.50        -7.0085   4.0000                                         
     3  2  1.50        -6.8029   0.0000                                         
   Description                                                                  
     l       E           TYP  RCUT    TYP  RCUT                                 
     0    -17.2561641     23  1.900                                             
     0    -15.8743224     23  1.900                                             
     1     -7.0085400     23  1.900                                             
     1     -2.7779785     23  1.900                                             
     2     -6.8029130     23  1.900                                             
  local pseudopotential read in
  partial core-charges read in
  partial kinetic energy density read in
  atomic valenz-charges read in
  non local Contribution for L=           0  read in
    real space projection operators read in
  non local Contribution for L=           0  read in
    real space projection operators read in
  non local Contribution for L=           1  read in
    real space projection operators read in
  non local Contribution for L=           1  read in
    real space projection operators read in
    PAW grid and wavefunctions read in
 
   number of l-projection  operators is LMAX  =           4
   number of lm-projection operators is LMMAX =           8
 
 POTCAR:    PAW_PBE Br 06Sep2000                  
   VRHFIN =Br: s2p5                                                             
   LEXCH  = PE                                                                  
   EATOM  =   368.4488 eV,   27.0802 Ry                                         
                                                                                
   TITEL  = PAW_PBE Br 06Sep2000                                                
   LULTRA =        F    use ultrasoft PP ?                                      
   IUNSCR =        1    unscreen: 0-lin 1-nonlin 2-no                           
   RPACOR =    1.900    partial core radius                                     
   POMASS =   79.904; ZVAL   =    7.000    mass and valenz                      
   RCORE  =    2.100    outmost cutoff radius                                   
   RWIGS  =    2.200; RWIGS  =    1.164    wigner-seitz radius (au A)           
   ENMAX  =  216.285; ENMIN  =  162.214 eV                                      
   ICORE  =        3    local potential                                         
   LCOR   =        T    correct aug charges                                     
   LPAW   =        T    paw PP                                                  
   EAUG   =  503.852                                                            
   DEXC   =    0.000                                                            
   RMAX   =    2.139    core radius for proj-oper                               
   RAUG   =    1.300    factor for augmentation sphere                          
   RDEP   =    2.186    radius for radial grids                                 
   RDEPT  =    1.890    core radius for aug-charge                              
                                                                                
   Atomic configuration                                                         
   10 entries                                                                   
     n  l   j            E        occ.                                          
     1  0  0.50    -13316.2796   2.0000                                         
     2  0  0.50     -1732.8239   2.0000                                         
     2  1  1.50     -1528.2193   6.0000                                         
     3  0  0.50      -238.0460   2.0000                                         
     3  1  1.50      -173.4609   6.0000                                         
     3  2  2.50       -66.7132  10.0000                                         
     4  0  0.50       -20.1334   2.0000                                         
     4  1  0.50        -7.8591   5.0000                                         
     4  2  2.50        -8.1635   0.0000                                         
     4  3  2.50        -8.1635   0.0000                                         
   Description                                                                  
     l       E           TYP  RCUT    TYP  RCUT                                 
     0    -20.1333652     23  2.100                                             
     0    -21.4939478     23  2.100                                             
     1     -7.8591052     23  2.100                                             
     1     -3.1608434     23  2.100                                             
     2     -8.1634956     23  2.100                                             
     3     -1.3605826      7  2.100                                             
  local pseudopotential read in
  partial core-charges read in
  partial kinetic energy density read in
  atomic valenz-charges read in
  non local Contribution for L=           0  read in
    real space projection operators read in
  non local Contribution for L=           0  read in
    real space projection operators read in
  non local Contribution for L=           1  read in
    real space projection operators read in
  non local Contribution for L=           1  read in
    real space projection operators read in
  non local Contribution for L=           2  read in
    real space projection operators read in
    PAW grid and wavefunctions read in
 
   number of l-projection  operators is LMAX  =           5
   number of lm-projection operators is LMMAX =          13
 
 Optimization of the real space projectors (new method)

 maximal supplied QI-value         = 15.12
 optimisation between [QCUT,QGAM] = [ 11.34, 22.83] = [ 36.00,145.93] Ry 
 Optimized for a Real-space Cutoff    1.56 Angstroem

   l    n(q)    QCUT    max X(q) W(low)/X(q) W(high)/X(q)  e(spline) 
   0     11    11.338    25.322    0.46E-04    0.79E-04    0.58E-06
   0     11    11.338    99.187    0.44E-04    0.77E-04    0.56E-06
   1     10    11.338    11.761    0.13E-03    0.11E-03    0.42E-06
   1     10    11.338     8.275    0.14E-03    0.11E-03    0.46E-06
   2     10    11.338     3.829    0.13E-03    0.23E-03    0.18E-06
 Optimization of the real space projectors (new method)

 maximal supplied QI-value         = 13.61
 optimisation between [QCUT,QGAM] = [ 11.43, 22.86] = [ 36.58,146.31] Ry 
 Optimized for a Real-space Cutoff    1.56 Angstroem

   l    n(q)    QCUT    max X(q) W(low)/X(q) W(high)/X(q)  e(spline) 
   1     10    11.429     4.545    0.52E-04    0.55E-05    0.71E-07
   1     10    11.429     6.014    0.18E-03    0.77E-05    0.28E-06
   2     10    11.429   266.542    0.21E-03    0.47E-03    0.14E-05
   2     10    11.429   232.726    0.21E-03    0.47E-03    0.14E-05
   0     11    11.429    38.050    0.89E-04    0.28E-04    0.53E-06
   0     11    11.429    16.565    0.70E-04    0.24E-04    0.40E-06
 Optimization of the real space projectors (new method)

 maximal supplied QI-value         = 19.84
 optimisation between [QCUT,QGAM] = [ 11.31, 22.82] = [ 35.82,145.81] Ry 
 Optimized for a Real-space Cutoff    1.20 Angstroem

   l    n(q)    QCUT    max X(q) W(low)/X(q) W(high)/X(q)  e(spline) 
   0      8    11.310   187.594    0.16E-03    0.19E-03    0.53E-07
   0      8    11.310   164.243    0.16E-03    0.19E-03    0.53E-07
   1      8    11.310    67.533    0.18E-03    0.19E-03    0.92E-07
   1      8    11.310    50.729    0.18E-03    0.19E-03    0.90E-07
 Optimization of the real space projectors (new method)

 maximal supplied QI-value         = 17.95
 optimisation between [QCUT,QGAM] = [ 11.31, 22.80] = [ 35.82,145.56] Ry 
 Optimized for a Real-space Cutoff    1.31 Angstroem

   l    n(q)    QCUT    max X(q) W(low)/X(q) W(high)/X(q)  e(spline) 
   0      9    11.310   175.082    0.48E-04    0.59E-04    0.71E-07
   0      9    11.310   174.004    0.47E-04    0.57E-04    0.69E-07
   1      8    11.310    54.315    0.11E-03    0.13E-03    0.93E-07
   1      8    11.310    42.441    0.10E-03    0.13E-03    0.91E-07
   2      8    11.310     3.596    0.18E-04    0.69E-04    0.67E-07
  PAW_PBE Cs_sv 08Apr2002               :
 energy of atom  1       EATOM= -555.6835
 kinetic energy error for atom=    0.0019 (will be added to EATOM!!)
  PAW_PBE Nb_pv 08Apr2002               :
 energy of atom  2       EATOM=-1043.3917
 kinetic energy error for atom=    0.0013 (will be added to EATOM!!)
  PAW_PBE S 06Sep2000                   :
 energy of atom  3       EATOM= -276.8230
 kinetic energy error for atom=    0.0020 (will be added to EATOM!!)
  PAW_PBE Br 06Sep2000                  :
 energy of atom  4       EATOM= -368.4488
 kinetic energy error for atom=    0.0011 (will be added to EATOM!!)
 
 
 POSCAR: Cs4 Nb12 S4 Br28                        
  positions in direct lattice
  No initial velocities read in
 exchange correlation table for  LEXCH =        8
   RHO(1)=    0.500       N(1)  =     2000
   RHO(2)=  100.500       N(2)  =     4000
 


--------------------------------------------------------------------------------------------------------


 ion  position               nearest neighbor table
   1  0.405  0.769  0.885-
   2  0.095  0.269  0.885-
   3  0.905  0.731  0.115-
   4  0.595  0.231  0.115-
   5  0.828  0.135  0.579-  19 2.47  36 2.61  34 2.62  28 2.66  17 2.68  44 2.80  15 2.88  14 2.91
                             6 3.12
   6  0.672  0.037  0.579-  17 2.48  35 2.61  41 2.62  28 2.67  19 2.67  45 2.80   8 2.88  10 2.92
                             5 3.12
   7  0.172  0.463  0.421-  18 2.48  31 2.61  48 2.62  46 2.67  20 2.67  40 2.80  13 2.88  12 2.92
                            11 3.12
   8  0.672  0.635  0.579-  17 2.47  35 2.61  32 2.62  42 2.66  19 2.68  45 2.80   6 2.88  10 2.91
                            15 3.12
   9  0.330  0.213  0.175-  20 2.39  26 2.60  43 2.60  33 2.73  29 2.74  30 2.76  11 2.91  16 2.92

  10  0.670  0.787  0.825-  17 2.39  41 2.60  32 2.60  21 2.73  23 2.74  25 2.76   8 2.91   6 2.92

  11  0.328  0.365  0.421-  20 2.47  22 2.61  43 2.62  46 2.66  18 2.68  47 2.80  16 2.88   9 2.91
                             7 3.12
  12  0.170  0.713  0.175-  18 2.39  48 2.60  24 2.60  29 2.73  33 2.74  37 2.76  13 2.91   7 2.92

  13  0.172  0.865  0.421-  18 2.47  31 2.61  24 2.62  38 2.66  20 2.68  40 2.80   7 2.88  12 2.91
                            16 3.12
  14  0.830  0.287  0.825-  19 2.39  39 2.60  34 2.60  23 2.73  21 2.74  27 2.76   5 2.91  15 2.92

  15  0.828  0.537  0.579-  19 2.48  36 2.61  39 2.62  42 2.67  17 2.67  44 2.80   5 2.88  14 2.92
                             8 3.12
  16  0.328  0.963  0.421-  20 2.48  22 2.61  26 2.62  38 2.67  18 2.67  47 2.80  11 2.88   9 2.92
                            13 3.12
  17  0.762  0.817  0.673-  10 2.39   8 2.47   6 2.48  15 2.67   5 2.68
  18  0.262  0.683  0.327-  12 2.39  13 2.47   7 2.48  16 2.67  11 2.68
  19  0.738  0.317  0.673-  14 2.39   5 2.47  15 2.48   6 2.67   8 2.68
  20  0.238  0.183  0.327-   9 2.39  11 2.47  16 2.48   7 2.67  13 2.68
  21  0.750  0.011  0.956-  10 2.73  14 2.74
  22  0.414  0.138  0.555-  11 2.61  16 2.61
  23  0.750  0.511  0.956-  14 2.73  10 2.74
  24  0.079  0.949  0.241-  12 2.60  13 2.62
  25  0.599  0.741  0.057-  10 2.76
  26  0.420  0.950  0.239-   9 2.60  16 2.62
  27  0.901  0.241  0.057-  14 2.76
  28  0.750  0.125  0.369-   5 2.66   6 2.67
  29  0.250  0.489  0.044-  12 2.73   9 2.74
  30  0.401  0.259  0.943-   9 2.76
  31  0.086  0.638  0.555-  13 2.61   7 2.61
  32  0.579  0.551  0.759-  10 2.60   8 2.62
  33  0.250  0.989  0.044-   9 2.73  12 2.74
  34  0.921  0.051  0.759-  14 2.60   5 2.62
  35  0.586  0.862  0.445-   8 2.61   6 2.61
  36  0.914  0.362  0.445-   5 2.61  15 2.61
  37  0.099  0.759  0.943-  12 2.76
  38  0.250  0.875  0.631-  13 2.66  16 2.67
  39  0.920  0.550  0.761-  14 2.60  15 2.62
  40  0.101  0.143  0.534-   7 2.80  13 2.80
  41  0.580  0.050  0.761-  10 2.60   6 2.62
  42  0.750  0.625  0.369-   8 2.66  15 2.67
  43  0.421  0.449  0.241-   9 2.60  11 2.62
  44  0.899  0.857  0.466-  15 2.80   5 2.80
  45  0.601  0.357  0.466-   6 2.80   8 2.80
  46  0.250  0.375  0.631-  11 2.66   7 2.67
  47  0.399  0.643  0.534-  16 2.80  11 2.80
  48  0.080  0.450  0.239-  12 2.60   7 2.62
 
  LATTYP: Found a simple monoclinic cell.
 ALAT       =    13.3731005516
 B/A-ratio  =     1.4635471073
 C/A-ratio  =     1.4040276409
 COS(beta)  =    -0.9560312962
  
  Lattice vectors:
  
 A1 = (   0.0000000000,  -8.5489802464, -10.2837130993)
 A2 = ( -19.5721626282,   0.0000000000,   0.0000000000)
 A3 = (   0.0000000000,  15.7095842465,  10.2837130993)


Analysis of symmetry for initial positions (statically):
=====================================================================
 Subroutine PRICEL returns:
 Original cell was already a primitive cell.
 

 Routine SETGRP: Setting up the symmetry group for a 
 simple monoclinic supercell.


 Subroutine GETGRP returns: Found  4 space group operations
 (whereof  2 operations were pure point group operations)
 out of a pool of  4 trial point group operations.


The static configuration has the point symmetry S_2 .
 The point group associated with its full space group is C_2h.


Analysis of symmetry for dynamics (positions and initial velocities):
=====================================================================
 Subroutine PRICEL returns:
 Original cell was already a primitive cell.
 

 Routine SETGRP: Setting up the symmetry group for a 
 simple monoclinic supercell.


 Subroutine GETGRP returns: Found  4 space group operations
 (whereof  2 operations were pure point group operations)
 out of a pool of  4 trial point group operations.


The dynamic configuration has the point symmetry S_2 .
 The point group associated with its full space group is C_2h.


 Subroutine INISYM returns: Found  4 space group operations
 (whereof  2 operations are pure point group operations),
 and found     1 'primitive' translations

 
 
 KPOINTS: Monoclinic                              
  interpolating k-points between supplied coordinates
  k-points in reciprocal lattice
Space group operators:
 irot       det(A)        alpha          n_x          n_y          n_z        tau_x        tau_y        tau_z
    1     1.000000     0.000000     1.000000     0.000000     0.000000     0.000000     0.000000     0.000000
    2    -1.000000     0.000000     1.000000     0.000000     0.000000     0.000000     0.000000     0.000000
    3     1.000000   180.000000     1.000000     0.000000     0.000000    -0.500000     0.500000    -0.000000
    4    -1.000000   180.000000     1.000000     0.000000     0.000000    -0.500000     0.500000     0.000000


--------------------------------------------------------------------------------------------------------




 Dimension of arrays:
   k-points           NKPTS =     26   k-points in BZ     NKDIM =     26   number of bands    NBANDS=    232
   number of dos      NEDOS =    301   number of ions     NIONS =     48
   non local maximal  LDIM  =      6   non local SUM 2l+1 LMDIM =     18
   total plane-waves  NPLWV = 622080
   max r-space proj   IRMAX =   6969   max aug-charges    IRDMAX=  26771
   dimension x,y,z NGX =   144 NGY =   54 NGZ =   80
   dimension x,y,z NGXF=   288 NGYF=  108 NGZF=  160
   support grid    NGXF=   288 NGYF=  108 NGZF=  160
   ions per type =               4  12   4  28
   NGX,Y,Z   is equivalent  to a cutoff of  12.23, 12.54, 12.82 a.u.
   NGXF,Y,Z  is equivalent  to a cutoff of  24.46, 25.07, 25.63 a.u.

 SYSTEM =  Ga2BiAs                                 
 POSCAR =  Cs4 Nb12 S4 Br28                        

 Startparameter for this run:
   NWRITE =      2    write-flag & timer
   PREC   = accura    normal or accurate (medium, high low for compatibility)
   ISTART =      1    job   : 0-new  1-cont  2-samecut
   ICHARG =      2    charge: 1-file 2-atom 10-const
   ISPIN  =      1    spin polarized calculation?
   LNONCOLLINEAR =      F non collinear calculations
   LSORBIT =      F    spin-orbit coupling
   INIWAV =      1    electr: 0-lowe 1-rand  2-diag
   LASPH  =      F    aspherical Exc in radial PAW
   METAGGA=      F    non-selfconsistent MetaGGA calc.

 Electronic Relaxation 1
   ENCUT  =  500.0 eV  36.75 Ry    6.06 a.u.  35.68 13.06 18.92*2*pi/ulx,y,z
   ENINI  =  500.0     initial cutoff
   ENAUG  =  503.9 eV  augmentation charge cutoff
   NELM   =     60;   NELMIN=  2; NELMDL=  0     # of ELM steps 
   EDIFF  = 0.1E-04   stopping-criterion for ELM
   LREAL  =      T    real-space projection
   NLSPLINE    = F    spline interpolate recip. space projectors
   LCOMPAT=      F    compatible to vasp.4.4
   GGA_COMPAT  = T    GGA compatible to vasp.4.4-vasp.4.6
   LMAXPAW     = -100 max onsite density
   LMAXMIX     =    2 max onsite mixed and CHGCAR
   VOSKOWN=      0    Vosko Wilk Nusair interpolation
   ROPT   =   -0.00025  -0.00025  -0.00025  -0.00025
 Ionic relaxation
   EDIFFG = -.1E-01   stopping-criterion for IOM
   NSW    =      0    number of steps for IOM
   NBLOCK =      1;   KBLOCK =      1    inner block; outer block 
   IBRION =     -1    ionic relax: 0-MD 1-quasi-New 2-CG
   NFREE  =      0    steps in history (QN), initial steepest desc. (CG)
   ISIF   =      2    stress and relaxation
   IWAVPR =     10    prediction:  0-non 1-charg 2-wave 3-comb
   ISYM   =      2    0-nonsym 1-usesym 2-fastsym
   LCORR  =      T    Harris-Foulkes like correction to forces

   POTIM  = 0.5000    time-step for ionic-motion
   TEIN   =    0.0    initial temperature
   TEBEG  =    0.0;   TEEND  =   0.0 temperature during run
   SMASS  =  -3.00    Nose mass-parameter (am)
   estimated Nose-frequenzy (Omega)   =  0.10E-29 period in steps =****** mass=  -0.875E-26a.u.
   SCALEE = 1.0000    scale energy and forces
   NPACO  =    256;   APACO  = 16.0  distance and # of slots for P.C.
   PSTRESS=    0.0 pullay stress

  Mass of Ions in am
   POMASS = 132.90 92.00 32.07 79.90
  Ionic Valenz
   ZVAL   =   9.00 11.00  6.00  7.00
  Atomic Wigner-Seitz radii
   RWIGS  =  -1.00 -1.00 -1.00 -1.00
  virtual crystal weights 
   VCA    =   1.00  1.00  1.00  1.00
   NELECT =     388.0000    total number of electrons
   NUPDOWN=      -1.0000    fix difference up-down

 DOS related values:
   EMIN   =  10.00;   EMAX   =-10.00  energy-range for DOS
   EFERMI =   0.00
   ISMEAR =     0;   SIGMA  =   0.05  broadening in eV -4-tet -1-fermi 0-gaus

 Electronic relaxation 2 (details)
   IALGO  =     38    algorithm
   LDIAG  =      T    sub-space diagonalisation (order eigenvalues)
   LSUBROT=      F    optimize rotation matrix (better conditioning)
   TURBO    =      0    0=normal 1=particle mesh
   IRESTART =      0    0=no restart 2=restart with 2 vectors
   NREBOOT  =      0    no. of reboots
   NMIN     =      0    reboot dimension
   EREF     =   0.00    reference energy to select bands
   IMIX   =      4    mixing-type and parameters
     AMIX     =   0.40;   BMIX     =  1.00
     AMIX_MAG =   1.60;   BMIX_MAG =  1.00
     AMIN     =   0.10
     WC   =   100.;   INIMIX=   1;  MIXPRE=   1;  MAXMIX= -45

 Intra band minimization:
   WEIMIN = 0.0000     energy-eigenvalue tresh-hold
   EBREAK =  0.11E-07  absolut break condition
   DEPER  =   0.30     relativ break condition  

   TIME   =   0.40     timestep for ELM

  volume/ion in A,a.u.               =      30.03       202.63
  Fermi-wavevector in a.u.,A,eV,Ry     =   1.057075  1.997583 15.203262  1.117408
  Thomas-Fermi vector in A             =   2.192335
 
 Write flags
   LWAVE        =      F    write WAVECAR
   LDOWNSAMPLE  =      F    k-point downsampling of WAVECAR
   LCHARG       =      F    write CHGCAR
   LVTOT        =      F    write LOCPOT, total local potential
   LVHAR        =      F    write LOCPOT, Hartree potential only
   LELF         =      F    write electronic localiz. function (ELF)
   LORBIT       =     11    0 simple, 1 ext, 2 COOP (PROOUT), +10 PAW based schemes


 Dipole corrections
   LMONO  =      F    monopole corrections only (constant potential shift)
   LDIPOL =      F    correct potential (dipole corrections)
   IDIPOL =      0    1-x, 2-y, 3-z, 4-all directions 
   EPSILON=  1.0000000 bulk dielectric constant

 Exchange correlation treatment:
   GGA     =    --    GGA type
   LEXCH   =     8    internal setting for exchange type
   VOSKOWN=      0    Vosko Wilk Nusair interpolation
   LHFCALC =     F    Hartree Fock is set to
   LHFONE  =     F    Hartree Fock one center treatment
   AEXX    =    0.0000 exact exchange contribution

 Linear response parameters
   LEPSILON=     F    determine dielectric tensor
   LRPA    =     F    only Hartree local field effects (RPA)
   LNABLA  =     F    use nabla operator in PAW spheres
   LVEL    =     F    velocity operator in full k-point grid
   LINTERFAST=   F  fast interpolation
   KINTER  =     0    interpolate to denser k-point grid
   CSHIFT  =0.1000    complex shift for real part using Kramers Kronig
   OMEGAMAX=  -1.0    maximum frequency
   DEG_THRESHOLD= 0.2000000E-02 threshold for treating states as degnerate
   RTIME   =   -0.100 relaxation time in fs
  (WPLASMAI=    0.000 imaginary part of plasma frequency in eV, 0.658/RTIME)
   DFIELD  = 0.0000000 0.0000000 0.0000000 field for delta impulse in time
 
 Orbital magnetization related:
   ORBITALMAG=     F  switch on orbital magnetization
   LCHIMAG   =     F  perturbation theory with respect to B field
   DQ        =  0.001000  dq finite difference perturbation B field
   LLRAUG    =     F  two centre corrections for induced B field



--------------------------------------------------------------------------------------------------------


 Static calculation
 charge density and potential will be updated during run
 non-spin polarized calculation
 Variant of blocked Davidson
 Davidson routine will perform the subspace rotation
 perform sub-space diagonalisation
    after iterative eigenvector-optimisation
 modified Broyden-mixing scheme, WC =      100.0
 initial mixing is a Kerker type mixing with AMIX =  0.4000 and BMIX =      1.0000
 Hartree-type preconditioning will be used
 using additional bands           38
 real space projection scheme for non local part
 use partial core corrections
 calculate Harris-corrections to forces 
   (improved forces if not selfconsistent)
 use gradient corrections 
 use of overlap-Matrix (Vanderbilt PP)
 Gauss-broadening in eV      SIGMA  =   0.05


--------------------------------------------------------------------------------------------------------


  energy-cutoff  :      500.00
  volume of cell :     1441.25
      direct lattice vectors                 reciprocal lattice vectors
    19.572162628  0.000000000  0.000000000     0.051092974  0.000000000  0.000000000
     0.000000000  7.160604000  0.000000000     0.000000000  0.139653024 -0.018854176
     0.000000000  1.388376246 10.283713099     0.000000000  0.000000000  0.097241141

  length of vectors
    19.572162628  7.160604000 10.377010345     0.051092974  0.140920002  0.097241141


 
 old parameters found on file WAVECAR:
  energy-cutoff  :      500.00
  volume of cell :     1441.25
      direct lattice vectors                 reciprocal lattice vectors
    19.572162628  0.000000000  0.000000000     0.051092974  0.000000000  0.000000000
     0.000000000  7.160604000  0.000000000     0.000000000  0.139653024 -0.018854176
     0.000000000  1.388376246 10.283713099     0.000000000  0.000000000  0.097241141

  length of vectors

 
 k-points in units of 2pi/SCALE and weight: Monoclinic                              
   0.00000000  0.06982651 -0.00942709       0.038
   0.00000000  0.06400764 -0.00864150       0.038
   0.00000000  0.05818876 -0.00785591       0.038
   0.00000000  0.05236988 -0.00707032       0.038
   0.00000000  0.04655101 -0.00628473       0.038
   0.00000000  0.04073213 -0.00549913       0.038
   0.00000000  0.03491326 -0.00471354       0.038
   0.00000000  0.02909438 -0.00392795       0.038
   0.00000000  0.02327550 -0.00314236       0.038
   0.00000000  0.01745663 -0.00235677       0.038
   0.00000000  0.01163775 -0.00157118       0.038
   0.00000000  0.00581888 -0.00078559       0.038
   0.00000000  0.00000000  0.00000000       0.038
   0.00000000  0.00000000  0.00000000       0.038
   0.00000000  0.00581888 -0.00483730       0.038
   0.00000000  0.01163775 -0.00967461       0.038
   0.00000000  0.01745663 -0.01451191       0.038
   0.00000000  0.02327550 -0.01934922       0.038
   0.00000000  0.02909438 -0.02418652       0.038
   0.00000000  0.03491326 -0.02902383       0.038
   0.00000000  0.04073213 -0.03386113       0.038
   0.00000000  0.04655101 -0.03869844       0.038
   0.00000000  0.05236988 -0.04353574       0.038
   0.00000000  0.05818876 -0.04837305       0.038
   0.00000000  0.06400764 -0.05321035       0.038
   0.00000000  0.06982651 -0.05804766       0.038
 
 k-points in reciprocal lattice and weights: Monoclinic                              
   0.00000000  0.50000000  0.00000000       0.038
   0.00000000  0.45833333  0.00000000       0.038
   0.00000000  0.41666667  0.00000000       0.038
   0.00000000  0.37500000  0.00000000       0.038
   0.00000000  0.33333333  0.00000000       0.038
   0.00000000  0.29166667  0.00000000       0.038
   0.00000000  0.25000000  0.00000000       0.038
   0.00000000  0.20833333  0.00000000       0.038
   0.00000000  0.16666667  0.00000000       0.038
   0.00000000  0.12500000  0.00000000       0.038
   0.00000000  0.08333333  0.00000000       0.038
   0.00000000  0.04166667  0.00000000       0.038
   0.00000000  0.00000000  0.00000000       0.038
   0.00000000  0.00000000  0.00000000       0.038
   0.00000000  0.04166667 -0.04166667       0.038
   0.00000000  0.08333333 -0.08333333       0.038
   0.00000000  0.12500000 -0.12500000       0.038
   0.00000000  0.16666667 -0.16666667       0.038
   0.00000000  0.20833333 -0.20833333       0.038
   0.00000000  0.25000000 -0.25000000       0.038
   0.00000000  0.29166667 -0.29166667       0.038
   0.00000000  0.33333333 -0.33333333       0.038
   0.00000000  0.37500000 -0.37500000       0.038
   0.00000000  0.41666667 -0.41666667       0.038
   0.00000000  0.45833333 -0.45833333       0.038
   0.00000000  0.50000000 -0.50000000       0.038
 
 position of ions in fractional coordinates (direct lattice) 
   0.40520199  0.76872197  0.88459999
   0.09479800  0.26872201  0.88459999
   0.90520199  0.73127799  0.11540000
   0.59479801  0.23127799  0.11540000
   0.82768498  0.13471601  0.57874697
   0.67227999  0.03741600  0.57922697
   0.17228000  0.46258400  0.42077301
   0.67231502  0.63471591  0.57874697
   0.33012598  0.21310298  0.17458900
   0.66987399  0.78689696  0.82541108
   0.32768500  0.36528399  0.42125301
   0.16987399  0.71310305  0.17458900
   0.17231500  0.86528399  0.42125301
   0.83012596  0.28689700  0.82541108
   0.82771996  0.53741600  0.57922697
   0.32771999  0.96258404  0.42077301
   0.76231498  0.81748499  0.67325999
   0.26231500  0.68251504  0.32674001
   0.73768502  0.31748499  0.67325999
   0.23768500  0.18251499  0.32674001
   0.75008303  0.01093099  0.95642505
   0.41396401  0.13764700  0.55523301
   0.74991697  0.51093096  0.95642505
   0.07943200  0.94937701  0.24077501
   0.59857101  0.74086996  0.05725900
   0.42013901  0.94979104  0.23899301
   0.90142904  0.24087000  0.05725900
   0.75017001  0.12530800  0.36914400
   0.25008301  0.48906903  0.04357500
   0.40142899  0.25912998  0.94274097
   0.08603600  0.63764695  0.55523301
   0.57943200  0.55062302  0.75922504
   0.24991699  0.98906899  0.04357500
   0.92056795  0.05062298  0.75922504
   0.58603604  0.86235308  0.44476701
   0.91396401  0.36235298  0.44476701
   0.09857100  0.75912994  0.94274097
   0.24982999  0.87469203  0.63085600
   0.92013897  0.55020899  0.76100701
   0.10100399  0.14254899  0.53351202
   0.57986099  0.05020900  0.76100701
   0.74982999  0.62530800  0.36914400
   0.42056800  0.44937697  0.24077501
   0.89899595  0.85745102  0.46648801
   0.60100400  0.35745098  0.46648801
   0.25016998  0.37469200  0.63085600
   0.39899600  0.64254901  0.53351202
   0.07986100  0.44979101  0.23899301
 
 position of ions in cartesian coordinates  (Angst):
   7.93067932  6.73267126  9.09697246
   1.85540187  3.15236950  9.09697246
  17.71676064  5.39661074  1.18674052
  11.64148330  1.81630874  1.18674052
  16.19958496  1.76816654  5.95166779
  13.15797330  1.07210612  5.95660400
   3.37189222  3.89657211  4.32710886
  13.15865899  5.34846783  5.95166779
   6.46127939  1.76834130  1.79542315
  13.11088275  6.78063869  8.48829079
   6.41350413  3.20051169  4.33204508
   3.32480144  5.34864378  1.79542315
   3.37257718  6.78081369  4.33204508
  16.24736023  3.20033694  8.48829079
  16.20026971  4.65240812  5.95660400
   6.41418886  7.47687435  4.32710886
  14.92015266  6.78842449  6.92361260
   5.13407182  5.34085799  3.36010051
  14.43809128  3.20812249  6.92361260
   4.65200949  1.76055563  3.36010051
  14.68074703  1.40615034  9.83560086
   8.10217095  1.75650799  5.70985699
  14.67749691  4.98645210  9.83560086
   1.55465602  7.13239908  2.47606110
  11.71532917  5.38457346  0.58883518
   8.22302913  7.13288974  2.45773554
  17.64291573  1.80427170  0.58883518
  14.68244934  1.40979171  3.79617095
   4.89466524  3.56252814  0.44811282
   7.85683346  3.16440630  9.69487762
   1.68391049  5.33680964  5.70985699
  11.34073734  4.99688339  7.80765247
   4.89141607  7.14282989  0.44811282
  18.01750565  1.41658115  7.80765247
  11.46999264  6.79247284  4.57385636
  17.88825226  3.21217013  4.57385636
   1.92924774  6.74470806  9.69487762
   4.88971329  7.13918877  6.48754215
  18.00910950  4.99639273  7.82597780
   1.97686660  1.76145232  5.48648453
  11.34913350  1.41609084  7.82597780
  14.67579461  4.99009371  3.79617095
   8.23142529  3.55209685  2.47606110
  17.59529496  6.78752804  4.79722882
  11.76294803  3.20722580  4.79722882
   4.89636755  3.55888652  6.48754215
   7.80921460  5.34175444  5.48648453
   1.56305254  3.55258751  2.45773554
 


--------------------------------------------------------------------------------------------------------


 k-point  1 :   0.0000 0.5000 0.0000  plane waves:   36550
 k-point  2 :   0.0000 0.4583 0.0000  plane waves:   36572
 k-point  3 :   0.0000 0.4167 0.0000  plane waves:   36599
 k-point  4 :   0.0000 0.3750 0.0000  plane waves:   36584
 k-point  5 :   0.0000 0.3333 0.0000  plane waves:   36579
 k-point  6 :   0.0000 0.2917 0.0000  plane waves:   36573
 k-point  7 :   0.0000 0.2500 0.0000  plane waves:   36566
 k-point  8 :   0.0000 0.2083 0.0000  plane waves:   36550
 k-point  9 :   0.0000 0.1667 0.0000  plane waves:   36587
 k-point 10 :   0.0000 0.1250 0.0000  plane waves:   36585
 k-point 11 :   0.0000 0.0833 0.0000  plane waves:   36571
 k-point 12 :   0.0000 0.0417 0.0000  plane waves:   36542
 k-point 13 :   0.0000 0.0000 0.0000  plane waves:   36535
 k-point 14 :   0.0000 0.0000 0.0000  plane waves:   36535
 k-point 15 :   0.0000 0.0417-0.0417  plane waves:   36545
 k-point 16 :   0.0000 0.0833-0.0833  plane waves:   36565
 k-point 17 :   0.0000 0.1250-0.1250  plane waves:   36591
 k-point 18 :   0.0000 0.1667-0.1667  plane waves:   36591
 k-point 19 :   0.0000 0.2083-0.2083  plane waves:   36595
 k-point 20 :   0.0000 0.2500-0.2500  plane waves:   36609
 k-point 21 :   0.0000 0.2917-0.2917  plane waves:   36614
 k-point 22 :   0.0000 0.3333-0.3333  plane waves:   36628
 k-point 23 :   0.0000 0.3750-0.3750  plane waves:   36622
 k-point 24 :   0.0000 0.4167-0.4167  plane waves:   36640
 k-point 25 :   0.0000 0.4583-0.4583  plane waves:   36649
 k-point 26 :   0.0000 0.5000-0.5000  plane waves:   36654

 maximum and minimum number of plane-waves per node :      6188     6009

 maximum number of plane-waves:     36654
 maximum index in each direction: 
   IXMAX=   35   IYMAX=   13   IZMAX=   19
   IXMIN=  -35   IYMIN=  -13   IZMIN=  -18


 real space projection operators:
  total allocation   :      26025.31 KBytes
  max/ min on nodes  :       4346.33       4323.31


 parallel 3D FFT for wavefunctions:
    minimum data exchange during FFTs selected (reduces bandwidth)
 parallel 3D FFT for charge:
    minimum data exchange during FFTs selected (reduces bandwidth)


 total amount of memory used by VASP MPI-rank0   222594. kBytes
=======================================================================

   base      :      30000. kBytes
   nonlr-proj:      10991. kBytes
   fftplans  :      10118. kBytes
   grid      :      19259. kBytes
   one-center:        124. kBytes
   wavefun   :     152102. kBytes
 
     INWAV:  cpu time    7.3299: real time    7.3363
 Broyden mixing: mesh for mixing (old mesh)
   NGX = 71   NGY = 27   NGZ = 37
  (NGX  =288   NGY  =108   NGZ  =160)
  gives a total of  70929 points

 initial charge density was supplied:
 charge density of overlapping atoms calculated
 number of electron     388.0000000 magnetization 
 keeping initial charge density in first step


--------------------------------------------------------------------------------------------------------


 Maximum index for non-local projection operator         1131
 Maximum index for augmentation-charges         1079 (set IRDMAX)


--------------------------------------------------------------------------------------------------------


 First call to EWALD:  gamma=   0.157
 Maximum number of real-space cells 2x 4x 3
 Maximum number of reciprocal cells 4x 2x 3

    FEWALD:  cpu time    0.0030: real time    0.0023


--------------------------------------- Iteration      1(   1)  ---------------------------------------


    POTLOK:  cpu time    0.1610: real time    0.1694
    SETDIJ:  cpu time    0.0120: real time    0.0122
     EDDAV:  cpu time   64.7222: real time   64.8642
       DOS:  cpu time    0.0050: real time    0.0037
    CHARGE:  cpu time    2.4196: real time    2.4240
    MIXING:  cpu time    0.0050: real time    0.0051
    --------------------------------------------
      LOOP:  cpu time   67.3248: real time   67.4787

 eigenvalue-minimisations  : 17600
 total energy-change (2. order) :-0.2355610E+03  (-0.1068569E+03)
 number of electron     388.0000013 magnetization 
 augmentation part       -3.9301267 magnetization 

 Broyden mixing:
  rms(total) = 0.82559E+01    rms(broyden)= 0.82559E+01
  rms(prec ) = 0.83022E+01
  weight for this iteration     100.00

 Free energy of the ion-electron system (eV)
  ---------------------------------------------------
  alpha Z        PSCENC =      1398.37695978
  Ewald energy   TEWEN  =    -15345.76116035
  -Hartree energ DENC   =    -10099.12453972
  -exchange      EXHF   =         0.00000000
  -V(xc)+E(xc)   XCENC  =       682.99281612
  PAW double counting   =     20859.21344202   -20454.16513889
  entropy T*S    EENTRO =        -0.01086865
  eigenvalues    EBANDS =     -3444.31318844
  atomic energy  EATOM  =     26167.23066318
  Solvation  Ediel_sol  =         0.00000000
  ---------------------------------------------------
  free energy    TOTEN  =      -235.56101494 eV

  energy without entropy =     -235.55014630  energy(sigma->0) =     -235.55558062


--------------------------------------------------------------------------------------------------------




--------------------------------------- Iteration      1(   2)  ---------------------------------------


    POTLOK:  cpu time    0.1600: real time    0.1671
    SETDIJ:  cpu time    0.0120: real time    0.0109
     EDDAV:  cpu time   68.1566: real time   68.2699
       DOS:  cpu time    0.0040: real time    0.0037
    CHARGE:  cpu time    2.3926: real time    2.3960
    MIXING:  cpu time    0.0050: real time    0.0051
    --------------------------------------------
      LOOP:  cpu time   70.7302: real time   70.8528

 eigenvalue-minimisations  : 18616
 total energy-change (2. order) :-0.7155508E+01  (-0.1890536E+02)
 number of electron     388.0000012 magnetization 
 augmentation part       -2.3089174 magnetization 

 Broyden mixing:
  rms(total) = 0.21818E+01    rms(broyden)= 0.21818E+01
  rms(prec ) = 0.22169E+01
  weight for this iteration     100.00

 eigenvalues of (default mixing * dielectric matrix)
  average eigenvalue GAMMA=   1.1674
  1.1674

 Free energy of the ion-electron system (eV)
  ---------------------------------------------------
  alpha Z        PSCENC =      1398.37695978
  Ewald energy   TEWEN  =    -15345.76116035
  -Hartree energ DENC   =    -10007.10992687
  -exchange      EXHF   =         0.00000000
  -V(xc)+E(xc)   XCENC  =       683.07712265
  PAW double counting   =     26979.01842868   -26593.14278034
  entropy T*S    EENTRO =        -0.01434759
  eigenvalues    EBANDS =     -3524.39148212
  atomic energy  EATOM  =     26167.23066318
  Solvation  Ediel_sol  =         0.00000000
  ---------------------------------------------------
  free energy    TOTEN  =      -242.71652297 eV

  energy without entropy =     -242.70217538  energy(sigma->0) =     -242.70934917


--------------------------------------------------------------------------------------------------------




--------------------------------------- Iteration      1(   3)  ---------------------------------------


    POTLOK:  cpu time    0.1590: real time    0.1635
    SETDIJ:  cpu time    0.0120: real time    0.0108
     EDDAV:  cpu time   68.4836: real time   68.5862
       DOS:  cpu time    0.0040: real time    0.0036
    CHARGE:  cpu time    2.3956: real time    2.3992
    MIXING:  cpu time    0.0050: real time    0.0051
    --------------------------------------------
      LOOP:  cpu time   71.0592: real time   71.1684

 eigenvalue-minimisations  : 18768
 total energy-change (2. order) : 0.7128881E+00  (-0.1392879E+01)
 number of electron     388.0000013 magnetization 
 augmentation part       -1.5430583 magnetization 

 Broyden mixing:
  rms(total) = 0.11949E+01    rms(broyden)= 0.11949E+01
  rms(prec ) = 0.12190E+01
  weight for this iteration     100.00

 eigenvalues of (default mixing * dielectric matrix)
  average eigenvalue GAMMA=   1.3972
  0.9757  1.8187

 Free energy of the ion-electron system (eV)
  ---------------------------------------------------
  alpha Z        PSCENC =      1398.37695978
  Ewald energy   TEWEN  =    -15345.76116035
  -Hartree energ DENC   =    -10001.14381185
  -exchange      EXHF   =         0.00000000
  -V(xc)+E(xc)   XCENC  =       683.43494037
  PAW double counting   =     29085.11225390   -28709.17750515
  entropy T*S    EENTRO =        -0.01625568
  eigenvalues    EBANDS =     -3520.05971911
  atomic energy  EATOM  =     26167.23066318
  Solvation  Ediel_sol  =         0.00000000
  ---------------------------------------------------
  free energy    TOTEN  =      -242.00363491 eV

  energy without entropy =     -241.98737923  energy(sigma->0) =     -241.99550707


--------------------------------------------------------------------------------------------------------




--------------------------------------- Iteration      1(   4)  ---------------------------------------


    POTLOK:  cpu time    0.1590: real time    0.1623
    SETDIJ:  cpu time    0.0120: real time    0.0108
     EDDAV:  cpu time   72.0550: real time   72.1895
       DOS:  cpu time    0.0030: real time    0.0035
    CHARGE:  cpu time    2.3926: real time    2.3969
    MIXING:  cpu time    0.0060: real time    0.0052
    --------------------------------------------
      LOOP:  cpu time   74.6277: real time   74.7682

 eigenvalue-minimisations  : 20048
 total energy-change (2. order) :-0.7082643E+00  (-0.6467665E+00)
 number of electron     388.0000011 magnetization 
 augmentation part       -1.5931839 magnetization 

 Broyden mixing:
  rms(total) = 0.86236E+00    rms(broyden)= 0.86236E+00
  rms(prec ) = 0.10154E+01
  weight for this iteration     100.00

 eigenvalues of (default mixing * dielectric matrix)
  average eigenvalue GAMMA=   1.2852
  2.3583  1.0207  0.4765

 Free energy of the ion-electron system (eV)
  ---------------------------------------------------
  alpha Z        PSCENC =      1398.37695978
  Ewald energy   TEWEN  =    -15345.76116035
  -Hartree energ DENC   =    -10015.50530866
  -exchange      EXHF   =         0.00000000
  -V(xc)+E(xc)   XCENC  =       684.22711202
  PAW double counting   =     30772.89224421   -30401.78822145
  entropy T*S    EENTRO =        -0.01340094
  eigenvalues    EBANDS =     -3502.37078703
  atomic energy  EATOM  =     26167.23066318
  Solvation  Ediel_sol  =         0.00000000
  ---------------------------------------------------
  free energy    TOTEN  =      -242.71189923 eV

  energy without entropy =     -242.69849829  energy(sigma->0) =     -242.70519876


--------------------------------------------------------------------------------------------------------




--------------------------------------- Iteration      1(   5)  ---------------------------------------


    POTLOK:  cpu time    0.1590: real time    0.1629
    SETDIJ:  cpu time    0.0120: real time    0.0108
     EDDAV:  cpu time   71.0592: real time   71.2125
       DOS:  cpu time    0.0030: real time    0.0038
    CHARGE:  cpu time    2.3946: real time    2.3986
    MIXING:  cpu time    0.0060: real time    0.0054
    --------------------------------------------
      LOOP:  cpu time   73.6338: real time   73.7939

 eigenvalue-minimisations  : 19624
 total energy-change (2. order) : 0.7624668E+00  (-0.5960699E+00)
 number of electron     388.0000013 magnetization 
 augmentation part       -1.6900619 magnetization 

 Broyden mixing:
  rms(total) = 0.26478E+00    rms(broyden)= 0.26478E+00
  rms(prec ) = 0.32936E+00
  weight for this iteration     100.00

 eigenvalues of (default mixing * dielectric matrix)
  average eigenvalue GAMMA=   1.1827
  2.4247  0.9625  0.9625  0.3809

 Free energy of the ion-electron system (eV)
  ---------------------------------------------------
  alpha Z        PSCENC =      1398.37695978
  Ewald energy   TEWEN  =    -15345.76116035
  -Hartree energ DENC   =    -10019.21967345
  -exchange      EXHF   =         0.00000000
  -V(xc)+E(xc)   XCENC  =       684.76027402
  PAW double counting   =     31578.82073920   -31209.76236215
  entropy T*S    EENTRO =        -0.01652055
  eigenvalues    EBANDS =     -3496.37835212
  atomic energy  EATOM  =     26167.23066318
  Solvation  Ediel_sol  =         0.00000000
  ---------------------------------------------------
  free energy    TOTEN  =      -241.94943242 eV

  energy without entropy =     -241.93291188  energy(sigma->0) =     -241.94117215


--------------------------------------------------------------------------------------------------------




--------------------------------------- Iteration      1(   6)  ---------------------------------------


    POTLOK:  cpu time    0.1590: real time    0.1616
    SETDIJ:  cpu time    0.0110: real time    0.0109
     EDDAV:  cpu time   66.9138: real time   67.0191
       DOS:  cpu time    0.0030: real time    0.0037
    CHARGE:  cpu time    2.3926: real time    2.3965
    MIXING:  cpu time    0.0060: real time    0.0055
    --------------------------------------------
      LOOP:  cpu time   69.4854: real time   69.5973

 eigenvalue-minimisations  : 18248
 total energy-change (2. order) : 0.1349905E+00  (-0.5529378E-01)
 number of electron     388.0000012 magnetization 
 augmentation part       -1.6320996 magnetization 

 Broyden mixing:
  rms(total) = 0.15247E+00    rms(broyden)= 0.15247E+00
  rms(prec ) = 0.15669E+00
  weight for this iteration     100.00

 eigenvalues of (default mixing * dielectric matrix)
  average eigenvalue GAMMA=   1.0877
  2.3265  0.9851  0.8817  0.8817  0.3632

 Free energy of the ion-electron system (eV)
  ---------------------------------------------------
  alpha Z        PSCENC =      1398.37695978
  Ewald energy   TEWEN  =    -15345.76116035
  -Hartree energ DENC   =    -10018.20603563
  -exchange      EXHF   =         0.00000000
  -V(xc)+E(xc)   XCENC  =       684.97112715
  PAW double counting   =     31714.53973766   -31345.77581290
  entropy T*S    EENTRO =        -0.01542234
  eigenvalues    EBANDS =     -3497.17449849
  atomic energy  EATOM  =     26167.23066318
  Solvation  Ediel_sol  =         0.00000000
  ---------------------------------------------------
  free energy    TOTEN  =      -241.81444192 eV

  energy without entropy =     -241.79901959  energy(sigma->0) =     -241.80673076


--------------------------------------------------------------------------------------------------------




--------------------------------------- Iteration      1(   7)  ---------------------------------------


    POTLOK:  cpu time    0.1580: real time    0.1608
    SETDIJ:  cpu time    0.0110: real time    0.0108
     EDDAV:  cpu time   70.9162: real time   71.0883
       DOS:  cpu time    0.0040: real time    0.0037
    CHARGE:  cpu time    2.3986: real time    2.4028
    MIXING:  cpu time    0.0060: real time    0.0056
    --------------------------------------------
      LOOP:  cpu time   73.4938: real time   73.6719

 eigenvalue-minimisations  : 19568
 total energy-change (2. order) :-0.4294050E-02  (-0.8185354E-02)
 number of electron     388.0000012 magnetization 
 augmentation part       -1.6279679 magnetization 

 Broyden mixing:
  rms(total) = 0.11763E+00    rms(broyden)= 0.11763E+00
  rms(prec ) = 0.12399E+00
  weight for this iteration     100.00

 eigenvalues of (default mixing * dielectric matrix)
  average eigenvalue GAMMA=   1.1121
  2.1583  1.3618  1.3618  1.0063  0.3923  0.3923

 Free energy of the ion-electron system (eV)
  ---------------------------------------------------
  alpha Z        PSCENC =      1398.37695978
  Ewald energy   TEWEN  =    -15345.76116035
  -Hartree energ DENC   =    -10018.87946593
  -exchange      EXHF   =         0.00000000
  -V(xc)+E(xc)   XCENC  =       685.01712352
  PAW double counting   =     31670.07919181   -31301.11754411
  entropy T*S    EENTRO =        -0.01525050
  eigenvalues    EBANDS =     -3496.74925338
  atomic energy  EATOM  =     26167.23066318
  Solvation  Ediel_sol  =         0.00000000
  ---------------------------------------------------
  free energy    TOTEN  =      -241.81873597 eV

  energy without entropy =     -241.80348547  energy(sigma->0) =     -241.81111072


--------------------------------------------------------------------------------------------------------




--------------------------------------- Iteration      1(   8)  ---------------------------------------


    POTLOK:  cpu time    0.1590: real time    0.1615
    SETDIJ:  cpu time    0.0110: real time    0.0109
     EDDAV:  cpu time   68.8085: real time   68.9340
       DOS:  cpu time    0.0030: real time    0.0037
    CHARGE:  cpu time    2.4106: real time    2.4148
    MIXING:  cpu time    0.0070: real time    0.0057
    --------------------------------------------
      LOOP:  cpu time   71.3991: real time   71.5306

 eigenvalue-minimisations  : 18752
 total energy-change (2. order) : 0.2469794E-02  (-0.2520625E-02)
 number of electron     388.0000012 magnetization 
 augmentation part       -1.6287066 magnetization 

 Broyden mixing:
  rms(total) = 0.55561E-01    rms(broyden)= 0.55561E-01
  rms(prec ) = 0.59668E-01
  weight for this iteration     100.00

 eigenvalues of (default mixing * dielectric matrix)
  average eigenvalue GAMMA=   1.1702
  2.5547  1.4220  1.4220  1.0522  0.9709  0.3848  0.3848

 Free energy of the ion-electron system (eV)
  ---------------------------------------------------
  alpha Z        PSCENC =      1398.37695978
  Ewald energy   TEWEN  =    -15345.76116035
  -Hartree energ DENC   =    -10020.48224982
  -exchange      EXHF   =         0.00000000
  -V(xc)+E(xc)   XCENC  =       685.11354889
  PAW double counting   =     31654.90976970   -31285.78795023
  entropy T*S    EENTRO =        -0.01527068
  eigenvalues    EBANDS =     -3495.40057666
  atomic energy  EATOM  =     26167.23066318
  Solvation  Ediel_sol  =         0.00000000
  ---------------------------------------------------
  free energy    TOTEN  =      -241.81626618 eV

  energy without entropy =     -241.80099550  energy(sigma->0) =     -241.80863084


--------------------------------------------------------------------------------------------------------




--------------------------------------- Iteration      1(   9)  ---------------------------------------


    POTLOK:  cpu time    0.1580: real time    0.1611
    SETDIJ:  cpu time    0.0120: real time    0.0108
     EDDAV:  cpu time   68.8815: real time   68.9883
       DOS:  cpu time    0.0040: real time    0.0035
    CHARGE:  cpu time    2.4006: real time    2.4043
    MIXING:  cpu time    0.0070: real time    0.0059
    --------------------------------------------
      LOOP:  cpu time   71.4631: real time   71.5739

 eigenvalue-minimisations  : 18872
 total energy-change (2. order) :-0.4361344E-03  (-0.1405543E-02)
 number of electron     388.0000012 magnetization 
 augmentation part       -1.6247548 magnetization 

 Broyden mixing:
  rms(total) = 0.20943E-01    rms(broyden)= 0.20943E-01
  rms(prec ) = 0.22994E-01
  weight for this iteration     100.00

 eigenvalues of (default mixing * dielectric matrix)
  average eigenvalue GAMMA=   1.1924
  2.5182  1.8323  1.2380  1.2380  0.9708  0.9708  0.3763  0.3949

 Free energy of the ion-electron system (eV)
  ---------------------------------------------------
  alpha Z        PSCENC =      1398.37695978
  Ewald energy   TEWEN  =    -15345.76116035
  -Hartree energ DENC   =    -10021.93666249
  -exchange      EXHF   =         0.00000000
  -V(xc)+E(xc)   XCENC  =       685.23920078
  PAW double counting   =     31721.59476972   -31352.56108772
  entropy T*S    EENTRO =        -0.01538567
  eigenvalues    EBANDS =     -3493.98399955
  atomic energy  EATOM  =     26167.23066318
  Solvation  Ediel_sol  =         0.00000000
  ---------------------------------------------------
  free energy    TOTEN  =      -241.81670231 eV

  energy without entropy =     -241.80131664  energy(sigma->0) =     -241.80900948


--------------------------------------------------------------------------------------------------------




--------------------------------------- Iteration      1(  10)  ---------------------------------------


    POTLOK:  cpu time    0.1580: real time    0.1612
    SETDIJ:  cpu time    0.0110: real time    0.0108
     EDDAV:  cpu time   66.5489: real time   66.6939
       DOS:  cpu time    0.0040: real time    0.0034
    CHARGE:  cpu time    2.3976: real time    2.4016
    MIXING:  cpu time    0.0070: real time    0.0061
    --------------------------------------------
      LOOP:  cpu time   69.1265: real time   69.2770

 eigenvalue-minimisations  : 18016
 total energy-change (2. order) :-0.9547735E-04  (-0.2516446E-03)
 number of electron     388.0000012 magnetization 
 augmentation part       -1.6255761 magnetization 

 Broyden mixing:
  rms(total) = 0.10354E-01    rms(broyden)= 0.10354E-01
  rms(prec ) = 0.11078E-01
  weight for this iteration     100.00

 eigenvalues of (default mixing * dielectric matrix)
  average eigenvalue GAMMA=   1.2439
  2.6180  2.1393  1.3287  1.3287  1.0783  1.0783  0.8494  0.3750  0.3993

 Free energy of the ion-electron system (eV)
  ---------------------------------------------------
  alpha Z        PSCENC =      1398.37695978
  Ewald energy   TEWEN  =    -15345.76116035
  -Hartree energ DENC   =    -10022.35052588
  -exchange      EXHF   =         0.00000000
  -V(xc)+E(xc)   XCENC  =       685.27176105
  PAW double counting   =     31714.43547215   -31345.34678740
  entropy T*S    EENTRO =        -0.01533410
  eigenvalues    EBANDS =     -3493.65784623
  atomic energy  EATOM  =     26167.23066318
  Solvation  Ediel_sol  =         0.00000000
  ---------------------------------------------------
  free energy    TOTEN  =      -241.81679779 eV

  energy without entropy =     -241.80146369  energy(sigma->0) =     -241.80913074


--------------------------------------------------------------------------------------------------------




--------------------------------------- Iteration      1(  11)  ---------------------------------------


    POTLOK:  cpu time    0.1590: real time    0.1618
    SETDIJ:  cpu time    0.0110: real time    0.0108
     EDDAV:  cpu time   67.1158: real time   67.2304
       DOS:  cpu time    0.0040: real time    0.0036
    CHARGE:  cpu time    2.3976: real time    2.4016
    MIXING:  cpu time    0.0070: real time    0.0063
    --------------------------------------------
      LOOP:  cpu time   69.6944: real time   69.8145

 eigenvalue-minimisations  : 18208
 total energy-change (2. order) :-0.1332578E-03  (-0.5099967E-04)
 number of electron     388.0000012 magnetization 
 augmentation part       -1.6249458 magnetization 

 Broyden mixing:
  rms(total) = 0.63215E-02    rms(broyden)= 0.63215E-02
  rms(prec ) = 0.70686E-02
  weight for this iteration     100.00

 eigenvalues of (default mixing * dielectric matrix)
  average eigenvalue GAMMA=   1.2600
  2.5671  2.3082  1.4390  1.4390  1.1366  1.1366  0.8996  0.8996  0.3752  0.3995

 Free energy of the ion-electron system (eV)
  ---------------------------------------------------
  alpha Z        PSCENC =      1398.37695978
  Ewald energy   TEWEN  =    -15345.76116035
  -Hartree energ DENC   =    -10022.66133035
  -exchange      EXHF   =         0.00000000
  -V(xc)+E(xc)   XCENC  =       685.29452868
  PAW double counting   =     31710.39555466   -31341.28081281
  entropy T*S    EENTRO =        -0.01533802
  eigenvalues    EBANDS =     -3493.39599583
  atomic energy  EATOM  =     26167.23066318
  Solvation  Ediel_sol  =         0.00000000
  ---------------------------------------------------
  free energy    TOTEN  =      -241.81693105 eV

  energy without entropy =     -241.80159303  energy(sigma->0) =     -241.80926204


--------------------------------------------------------------------------------------------------------




--------------------------------------- Iteration      1(  12)  ---------------------------------------


    POTLOK:  cpu time    0.1590: real time    0.1613
    SETDIJ:  cpu time    0.0110: real time    0.0107
     EDDAV:  cpu time   62.7135: real time   62.8588
       DOS:  cpu time    0.0040: real time    0.0035
    CHARGE:  cpu time    2.3956: real time    2.3999
    MIXING:  cpu time    0.0070: real time    0.0064
    --------------------------------------------
      LOOP:  cpu time   65.2901: real time   65.4406

 eigenvalue-minimisations  : 16848
 total energy-change (2. order) :-0.4981022E-05  (-0.1787227E-04)
 number of electron     388.0000012 magnetization 
 augmentation part       -1.6246749 magnetization 

 Broyden mixing:
  rms(total) = 0.17163E-02    rms(broyden)= 0.17163E-02
  rms(prec ) = 0.17964E-02
  weight for this iteration     100.00

 eigenvalues of (default mixing * dielectric matrix)
  average eigenvalue GAMMA=   1.3056
  2.7706  2.4816  1.5974  1.5974  1.1397  1.1397  1.0082  0.9261  0.9261  0.3752
  0.3996

 Free energy of the ion-electron system (eV)
  ---------------------------------------------------
  alpha Z        PSCENC =      1398.37695978
  Ewald energy   TEWEN  =    -15345.76116035
  -Hartree energ DENC   =    -10022.75345476
  -exchange      EXHF   =         0.00000000
  -V(xc)+E(xc)   XCENC  =       685.30218880
  PAW double counting   =     31706.23502400   -31337.10933394
  entropy T*S    EENTRO =        -0.01534935
  eigenvalues    EBANDS =     -3493.32247339
  atomic energy  EATOM  =     26167.23066318
  Solvation  Ediel_sol  =         0.00000000
  ---------------------------------------------------
  free energy    TOTEN  =      -241.81693603 eV

  energy without entropy =     -241.80158668  energy(sigma->0) =     -241.80926135


--------------------------------------------------------------------------------------------------------




--------------------------------------- Iteration      1(  13)  ---------------------------------------


    POTLOK:  cpu time    0.1550: real time    0.1612
    SETDIJ:  cpu time    0.0120: real time    0.0108
     EDDAV:  cpu time   40.7828: real time   40.8451
       DOS:  cpu time    0.0050: real time    0.0037
    --------------------------------------------
      LOOP:  cpu time   40.9548: real time   41.0208

 eigenvalue-minimisations  :  9408
 total energy-change (2. order) :-0.8845567E-05  (-0.2421648E-05)
 number of electron     388.0000012 magnetization 
 augmentation part       -1.6246749 magnetization 

 Free energy of the ion-electron system (eV)
  ---------------------------------------------------
  alpha Z        PSCENC =      1398.37695978
  Ewald energy   TEWEN  =    -15345.76116035
  -Hartree energ DENC   =    -10022.82632661
  -exchange      EXHF   =         0.00000000
  -V(xc)+E(xc)   XCENC  =       685.30655213
  PAW double counting   =     31704.58677598   -31335.45667094
  entropy T*S    EENTRO =        -0.01534981
  eigenvalues    EBANDS =     -3493.25838825
  atomic energy  EATOM  =     26167.23066318
  Solvation  Ediel_sol  =         0.00000000
  ---------------------------------------------------
  free energy    TOTEN  =      -241.81694488 eV

  energy without entropy =     -241.80159507  energy(sigma->0) =     -241.80926997


--------------------------------------------------------------------------------------------------------




 average (electrostatic) potential at core
  the test charge radii are     1.1312  1.2125  0.9698  1.0178
  (the norm of the test charge is              1.0000)
       1 -49.0601       2 -49.0601       3 -49.0602       4 -49.0602       5 -39.1319
       6 -39.1288       7 -39.1288       8 -39.1319       9 -39.1784      10 -39.1784
      11 -39.1319      12 -39.1784      13 -39.1319      14 -39.1784      15 -39.1288
      16 -39.1288      17 -90.2858      18 -90.2858      19 -90.2858      20 -90.2858
      21 -63.8890      22 -64.1829      23 -63.8890      24 -64.2793      25 -62.8779
      26 -64.2893      27 -62.8779      28 -63.8562      29 -63.8889      30 -62.8779
      31 -64.1829      32 -64.2793      33 -63.8889      34 -64.2793      35 -64.1829
      36 -64.1829      37 -62.8779      38 -63.8561      39 -64.2893      40 -63.4188
      41 -64.2894      42 -63.8562      43 -64.2793      44 -63.4188      45 -63.4188
      46 -63.8561      47 -63.4188      48 -64.2893
 
 
 
 E-fermi :   2.3061     XC(G=0):  -8.5368     alpha+bet : -7.7399


 k-point     1 :       0.0000    0.5000    0.0000
  band No.  band energies     occupation 
      1     -29.6717      2.00000
      2     -29.6717      2.00000
      3     -29.6717      2.00000
      4     -29.6717      2.00000
      5     -29.5573      2.00000
      6     -29.5573      2.00000
      7     -29.5573      2.00000
      8     -29.5573      2.00000
      9     -29.5501      2.00000
     10     -29.5501      2.00000
     11     -29.5501      2.00000
     12     -29.5501      2.00000
     13     -29.5107      2.00000
     14     -29.5107      2.00000
     15     -29.5107      2.00000
     16     -29.5107      2.00000
     17     -29.4222      2.00000
     18     -29.4222      2.00000
     19     -29.4222      2.00000
     20     -29.4222      2.00000
     21     -29.3098      2.00000
     22     -29.3098      2.00000
     23     -29.3098      2.00000
     24     -29.3098      2.00000
     25     -29.2725      2.00000
     26     -29.2725      2.00000
     27     -29.2725      2.00000
     28     -29.2725      2.00000
     29     -29.0798      2.00000
     30     -29.0798      2.00000
     31     -29.0797      2.00000
     32     -29.0797      2.00000
     33     -29.0637      2.00000
     34     -29.0637      2.00000
     35     -29.0637      2.00000
     36     -29.0637      2.00000
     37     -19.3069      2.00000
     38     -19.3069      2.00000
     39     -19.3067      2.00000
     40     -19.3067      2.00000
     41     -13.5960      2.00000
     42     -13.5960      2.00000
     43     -13.5619      2.00000
     44     -13.5619      2.00000
     45     -13.4988      2.00000
     46     -13.4988      2.00000
     47     -13.4879      2.00000
     48     -13.4879      2.00000
     49     -13.3267      2.00000
     50     -13.3267      2.00000
     51     -13.3221      2.00000
     52     -13.3221      2.00000
     53     -13.0781      2.00000
     54     -13.0781      2.00000
     55     -13.0771      2.00000
     56     -13.0771      2.00000
     57     -13.0532      2.00000
     58     -13.0532      2.00000
     59     -13.0512      2.00000
     60     -13.0512      2.00000
     61     -12.5726      2.00000
     62     -12.5726      2.00000
     63     -12.5626      2.00000
     64     -12.5626      2.00000
     65     -12.0440      2.00000
     66     -12.0439      2.00000
     67     -12.0439      2.00000
     68     -12.0439      2.00000
     69     -11.4609      2.00000
     70     -11.4609      2.00000
     71     -11.4599      2.00000
     72     -11.4599      2.00000
     73      -6.1768      2.00000
     74      -6.1768      2.00000
     75      -6.1744      2.00000
     76      -6.1744      2.00000
     77      -6.1594      2.00000
     78      -6.1594      2.00000
     79      -6.1552      2.00000
     80      -6.1552      2.00000
     81      -6.0593      2.00000
     82      -6.0593      2.00000
     83      -6.0591      2.00000
     84      -6.0590      2.00000
     85      -3.5097      2.00000
     86      -3.5096      2.00000
     87      -3.4652      2.00000
     88      -3.4652      2.00000
     89      -3.3385      2.00000
     90      -3.3385      2.00000
     91      -3.3131      2.00000
     92      -3.3131      2.00000
     93      -3.1314      2.00000
     94      -3.1314      2.00000
     95      -3.1219      2.00000
     96      -3.1219      2.00000
     97      -2.9254      2.00000
     98      -2.9254      2.00000
     99      -2.9014      2.00000
    100      -2.9014      2.00000
    101      -2.6760      2.00000
    102      -2.6760      2.00000
    103      -2.6499      2.00000
    104      -2.6499      2.00000
    105      -2.5321      2.00000
    106      -2.5321      2.00000
    107      -2.4198      2.00000
    108      -2.4198      2.00000
    109      -2.3333      2.00000
    110      -2.3333      2.00000
    111      -2.3005      2.00000
    112      -2.3005      2.00000
    113      -2.2752      2.00000
    114      -2.2752      2.00000
    115      -2.1968      2.00000
    116      -2.1968      2.00000
    117      -2.1411      2.00000
    118      -2.1411      2.00000
    119      -2.1196      2.00000
    120      -2.1196      2.00000
    121      -2.0320      2.00000
    122      -2.0320      2.00000
    123      -2.0138      2.00000
    124      -2.0138      2.00000
    125      -1.8756      2.00000
    126      -1.8756      2.00000
    127      -1.7055      2.00000
    128      -1.7055      2.00000
    129      -1.6036      2.00000
    130      -1.6036      2.00000
    131      -1.5587      2.00000
    132      -1.5587      2.00000
    133      -1.4701      2.00000
    134      -1.4701      2.00000
    135      -1.3945      2.00000
    136      -1.3945      2.00000
    137      -1.2905      2.00000
    138      -1.2905      2.00000
    139      -1.2597      2.00000
    140      -1.2597      2.00000
    141      -1.2518      2.00000
    142      -1.2518      2.00000
    143      -1.2155      2.00000
    144      -1.2155      2.00000
    145      -1.1219      2.00000
    146      -1.1219      2.00000
    147      -1.0801      2.00000
    148      -1.0801      2.00000
    149      -0.8624      2.00000
    150      -0.8624      2.00000
    151      -0.7972      2.00000
    152      -0.7972      2.00000
    153      -0.7742      2.00000
    154      -0.7742      2.00000
    155      -0.7345      2.00000
    156      -0.7345      2.00000
    157      -0.6078      2.00000
    158      -0.6078      2.00000
    159      -0.5352      2.00000
    160      -0.5352      2.00000
    161      -0.4988      2.00000
    162      -0.4988      2.00000
    163      -0.4418      2.00000
    164      -0.4418      2.00000
    165      -0.2134      2.00000
    166      -0.2134      2.00000
    167      -0.1909      2.00000
    168      -0.1909      2.00000
    169      -0.0841      2.00000
    170      -0.0841      2.00000
    171      -0.0310      2.00000
    172      -0.0310      2.00000
    173       0.1391      2.00000
    174       0.1391      2.00000
    175       0.1508      2.00000
    176       0.1508      2.00000
    177       0.3874      2.00000
    178       0.3874      2.00000
    179       0.4301      2.00000
    180       0.4301      2.00000
    181       0.9686      2.00000
    182       0.9686      2.00000
    183       1.0066      2.00000
    184       1.0066      2.00000
    185       1.4510      2.00000
    186       1.4510      2.00000
    187       1.4563      2.00000
    188       1.4563      2.00000
    189       1.4719      2.00000
    190       1.4719      2.00000
    191       1.4851      2.00000
    192       1.4851      2.00000
    193       2.2809      1.52509
    194       2.2809      1.52508
    195       2.3400      0.33800
    196       2.3400      0.33799
    197       3.2114      0.00000
    198       3.2114      0.00000
    199       3.2361      0.00000
    200       3.2361      0.00000
    201       3.4756      0.00000
    202       3.4756      0.00000
    203       3.5030      0.00000
    204       3.5030      0.00000
    205       3.8552      0.00000
    206       3.8552      0.00000
    207       3.8900      0.00000
    208       3.8900      0.00000
    209       4.0265      0.00000
    210       4.0265      0.00000
    211       4.0705      0.00000
    212       4.0705      0.00000
    213       4.1342      0.00000
    214       4.1342      0.00000
    215       4.1870      0.00000
    216       4.1871      0.00000
    217       4.4931      0.00000
    218       4.4931      0.00000
    219       4.5238      0.00000
    220       4.5241      0.00000
    221       4.6106      0.00000
    222       4.6108      0.00000
    223       4.6608      0.00000
    224       4.6614      0.00000
    225       4.8198      0.00000
    226       4.8311      0.00000
    227       4.8677      0.00000
    228       4.9613      0.00000
    229       5.2068      0.00000
    230       5.2282      0.00000
    231       5.2440      0.00000
    232       5.3943      0.00000

 k-point     2 :       0.0000    0.4583    0.0000
  band No.  band energies     occupation 
      1     -29.6737      2.00000
      2     -29.6736      2.00000
      3     -29.6699      2.00000
      4     -29.6699      2.00000
      5     -29.5583      2.00000
      6     -29.5582      2.00000
      7     -29.5568      2.00000
      8     -29.5568      2.00000
      9     -29.5507      2.00000
     10     -29.5506      2.00000
     11     -29.5495      2.00000
     12     -29.5495      2.00000
     13     -29.5108      2.00000
     14     -29.5108      2.00000
     15     -29.5102      2.00000
     16     -29.5102      2.00000
     17     -29.4230      2.00000
     18     -29.4230      2.00000
     19     -29.4215      2.00000
     20     -29.4215      2.00000
     21     -29.3126      2.00000
     22     -29.3126      2.00000
     23     -29.3071      2.00000
     24     -29.3071      2.00000
     25     -29.2742      2.00000
     26     -29.2742      2.00000
     27     -29.2707      2.00000
     28     -29.2706      2.00000
     29     -29.0808      2.00000
     30     -29.0808      2.00000
     31     -29.0784      2.00000
     32     -29.0783      2.00000
     33     -29.0641      2.00000
     34     -29.0641      2.00000
     35     -29.0633      2.00000
     36     -29.0633      2.00000
     37     -19.3070      2.00000
     38     -19.3069      2.00000
     39     -19.3067      2.00000
     40     -19.3067      2.00000
     41     -13.6134      2.00000
[...]
  0.000  -0.002   0.000   0.002  -0.002  -0.000  -0.000   0.001  -0.000   0.000   0.001   0.003  -0.000
  0.003  -0.013  -0.001  -0.000   0.001   0.000  -0.001  -0.000  -0.000   0.000   0.003  -0.000   0.009


------------------------ aborting loop because EDIFF is reached ----------------------------------------


 


 total charge     
 
# of ion       s       p       d       tot
------------------------------------------
    1        1.836   4.710   0.019   6.565
    2        1.836   4.710   0.019   6.565
    3        1.836   4.710   0.019   6.565
    4        1.836   4.710   0.019   6.565
    5        0.293   6.298   2.992   9.582
    6        0.294   6.299   2.989   9.582
    7        0.294   6.299   2.989   9.582
    8        0.293   6.298   2.992   9.582
    9        0.297   6.303   2.964   9.564
   10        0.297   6.303   2.964   9.564
   11        0.293   6.298   2.992   9.582
   12        0.297   6.303   2.964   9.564
   13        0.293   6.298   2.992   9.582
   14        0.297   6.303   2.964   9.564
   15        0.294   6.299   2.989   9.582
   16        0.294   6.299   2.989   9.582
   17        1.327   2.398   0.000   3.725
   18        1.327   2.398   0.000   3.725
   19        1.327   2.398   0.000   3.725
   20        1.327   2.398   0.000   3.725
   21        1.610   3.254   0.020   4.884
   22        1.615   3.238   0.029   4.883
   23        1.610   3.254   0.020   4.884
   24        1.615   3.244   0.031   4.890
   25        1.606   3.266   0.009   4.881
   26        1.615   3.244   0.031   4.890
   27        1.606   3.266   0.009   4.881
   28        1.614   3.246   0.025   4.885
   29        1.610   3.254   0.020   4.884
   30        1.606   3.266   0.009   4.881
   31        1.615   3.238   0.029   4.883
   32        1.615   3.244   0.031   4.890
   33        1.610   3.254   0.020   4.884
   34        1.615   3.244   0.031   4.890
   35        1.615   3.238   0.029   4.883
   36        1.615   3.238   0.029   4.883
   37        1.606   3.266   0.009   4.881
   38        1.614   3.246   0.025   4.885
   39        1.615   3.244   0.031   4.890
   40        1.610   3.252   0.016   4.877
   41        1.615   3.244   0.031   4.890
   42        1.614   3.246   0.025   4.885
   43        1.615   3.244   0.031   4.890
   44        1.610   3.252   0.016   4.877
   45        1.610   3.252   0.016   4.877
   46        1.614   3.246   0.025   4.885
   47        1.610   3.252   0.016   4.877
   48        1.615   3.244   0.031   4.890
--------------------------------------------------
tot         61.326 195.007  36.501 292.833
 
    CHARGE:  cpu time    2.3936: real time    2.3967
    FORLOC:  cpu time    0.0580: real time    0.0577
    FORNL :  cpu time   12.9490: real time   12.9667
    STRESS:  cpu time   37.7723: real time   37.8410
    FORCOR:  cpu time    0.2170: real time    0.2174
    FORHAR:  cpu time    0.0890: real time    0.0885
    MIXING:  cpu time    0.0060: real time    0.0064
    OFIELD:  cpu time    0.0000: real time    0.0001

  FORCE on cell =-STRESS in cart. coord.  units (eV):
  Direction    XX          YY          ZZ          XY          YZ          ZX
  --------------------------------------------------------------------------------------
  Alpha Z  1398.37696  1398.37696  1398.37696
  Ewald   -6310.08690 -1070.03530 -7965.73926    -0.00003   -30.11074     0.00018
  Hartree  2261.20737  6912.56672   849.23293    -0.00005   -20.58739    -0.00002
  E(xc)   -1527.55295 -1526.67398 -1528.02272    -0.00000     0.01943    -0.00000
  Local   -2043.86974-11967.87380   995.00941     0.00010    49.94485    -0.00012
  n-local  1243.73538  1239.07877  1240.45070    -0.00000     0.06790    -0.00000
  augment    32.74789    31.83712    34.74550    -0.00000    -0.06555    -0.00001
  Kinetic  4946.10428  4983.43517  4977.22274    -0.00001     0.77849     0.00005
  Fock        0.00000     0.00000     0.00000     0.00000     0.00000     0.00000
  -------------------------------------------------------------------------------------
  Total       0.66228     0.71166     1.27626     0.00000     0.04698     0.00000
  in kB       0.73623     0.79113     1.41877     0.00000     0.05222     0.00000
  external pressure =        0.98 kB  Pullay stress =        0.00 kB


 VOLUME and BASIS-vectors are now :
 -----------------------------------------------------------------------------
  energy-cutoff  :      500.00
  volume of cell :     1441.25
      direct lattice vectors                 reciprocal lattice vectors
    19.572162628  0.000000000  0.000000000     0.051092974  0.000000000  0.000000000
     0.000000000  7.160604000  0.000000000     0.000000000  0.139653024 -0.018854176
     0.000000000  1.388376246 10.283713099     0.000000000  0.000000000  0.097241141

  length of vectors
    19.572162628  7.160604000 10.377010345     0.051092974  0.140920002  0.097241141


 FORCES acting on ions
    electron-ion (+dipol)            ewald-force                    non-local-force                 convergence-correction
 -----------------------------------------------------------------------------------------------
   -.499E+02 0.419E+01 0.152E+02   0.497E+02 -.429E+01 -.152E+02   0.145E+00 0.913E-01 -.634E-01   0.177E-02 0.359E-03 0.226E-02
   0.499E+02 0.419E+01 0.152E+02   -.497E+02 -.429E+01 -.152E+02   -.145E+00 0.913E-01 -.634E-01   -.177E-02 0.359E-03 0.227E-02
   -.499E+02 -.419E+01 -.152E+02   0.497E+02 0.429E+01 0.152E+02   0.145E+00 -.913E-01 0.634E-01   0.175E-02 -.358E-03 -.226E-02
   0.499E+02 -.419E+01 -.152E+02   -.497E+02 0.429E+01 0.152E+02   -.145E+00 -.913E-01 0.634E-01   -.175E-02 -.358E-03 -.226E-02
   -.273E+03 0.129E+03 0.197E+03   0.273E+03 -.128E+03 -.197E+03   0.124E+00 -.695E+00 -.510E-01   0.279E-02 -.129E-02 0.507E-03
   0.268E+03 -.127E+03 0.190E+03   -.268E+03 0.126E+03 -.190E+03   -.921E-01 0.663E+00 0.579E-01   -.353E-02 0.238E-02 -.176E-03
   0.268E+03 0.127E+03 -.190E+03   -.268E+03 -.126E+03 0.190E+03   -.921E-01 -.663E+00 -.579E-01   -.353E-02 -.238E-02 0.172E-03
   0.273E+03 0.129E+03 0.197E+03   -.273E+03 -.128E+03 -.197E+03   -.124E+00 -.695E+00 -.510E-01   -.280E-02 -.129E-02 0.508E-03
   -.187E+03 -.191E+01 0.412E+03   0.187E+03 0.192E+01 -.411E+03   -.779E-01 -.919E-03 -.321E+00   0.229E-02 0.233E-03 -.922E-02
   0.187E+03 0.191E+01 -.412E+03   -.187E+03 -.192E+01 0.411E+03   0.779E-01 0.919E-03 0.321E+00   -.228E-02 -.235E-03 0.922E-02
   -.273E+03 -.129E+03 -.197E+03   0.273E+03 0.128E+03 0.197E+03   0.124E+00 0.695E+00 0.510E-01   0.280E-02 0.129E-02 -.508E-03
   0.187E+03 -.191E+01 0.412E+03   -.187E+03 0.192E+01 -.411E+03   0.779E-01 -.919E-03 -.321E+00   -.229E-02 0.234E-03 -.922E-02
   0.273E+03 -.129E+03 -.197E+03   -.273E+03 0.128E+03 0.197E+03   -.124E+00 0.695E+00 0.510E-01   -.280E-02 0.129E-02 -.511E-03
   -.187E+03 0.191E+01 -.412E+03   0.187E+03 -.192E+01 0.411E+03   -.779E-01 0.919E-03 0.321E+00   0.227E-02 -.234E-03 0.922E-02
   -.268E+03 -.127E+03 0.190E+03   0.268E+03 0.126E+03 -.190E+03   0.921E-01 0.663E+00 0.579E-01   0.351E-02 0.237E-02 -.176E-03
   -.268E+03 0.127E+03 -.190E+03   0.268E+03 -.126E+03 0.190E+03   0.921E-01 -.663E+00 -.579E-01   0.353E-02 -.237E-02 0.174E-03
   -.168E+03 -.575E+00 -.775E+02   0.168E+03 0.545E+00 0.802E+02   -.224E+00 0.292E-01 -.265E+01   0.899E-03 -.178E-03 0.247E-02
   -.168E+03 0.575E+00 0.775E+02   0.168E+03 -.545E+00 -.802E+02   -.224E+00 -.292E-01 0.265E+01   0.903E-03 0.178E-03 -.247E-02
   0.168E+03 -.575E+00 -.775E+02   -.168E+03 0.545E+00 0.802E+02   0.224E+00 0.292E-01 -.265E+01   -.906E-03 -.177E-03 0.247E-02
   0.168E+03 0.575E+00 0.775E+02   -.168E+03 -.545E+00 -.802E+02   0.224E+00 -.292E-01 0.265E+01   -.904E-03 0.177E-03 -.247E-02
   -.958E+00 0.126E+00 -.291E+03   0.972E+00 -.133E+00 0.293E+03   -.881E-02 0.135E-01 -.183E+01   -.126E-04 0.170E-04 0.314E-02
   -.229E+03 -.120E+02 -.227E+03   0.231E+03 0.121E+02 0.228E+03   -.150E+01 -.720E-01 -.929E+00   0.275E-02 -.809E-03 0.332E-02
   0.958E+00 0.126E+00 -.291E+03   -.972E+00 -.133E+00 0.293E+03   0.881E-02 0.135E-01 -.183E+01   0.624E-05 0.159E-04 0.314E-02
   0.315E+03 -.110E+03 0.128E+03   -.316E+03 0.111E+03 -.128E+03   0.137E+01 -.810E+00 0.349E+00   -.343E-02 0.965E-03 -.443E-02
   0.111E+03 0.233E+01 -.156E+03   -.111E+03 -.234E+01 0.157E+03   0.485E+00 0.176E-01 -.134E+01   -.224E-02 0.150E-03 0.400E-03
   -.309E+03 0.110E+03 0.134E+03   0.310E+03 -.111E+03 -.134E+03   -.135E+01 0.812E+00 0.376E+00   0.324E-02 -.952E-03 -.386E-02
   -.111E+03 0.233E+01 -.156E+03   0.111E+03 -.234E+01 0.157E+03   -.485E+00 0.176E-01 -.134E+01   0.224E-02 0.150E-03 0.402E-03
   -.654E+01 0.750E+00 0.375E+03   0.669E+01 -.840E+00 -.377E+03   -.152E+00 0.832E-01 0.187E+01   -.827E-03 -.235E-04 -.432E-02
   -.958E+00 -.126E+00 0.291E+03   0.972E+00 0.133E+00 -.293E+03   -.881E-02 -.135E-01 0.183E+01   -.102E-04 -.167E-04 -.313E-02
   -.111E+03 -.233E+01 0.156E+03   0.111E+03 0.234E+01 -.157E+03   -.485E+00 -.176E-01 0.134E+01   0.226E-02 -.151E-03 -.402E-03
   0.229E+03 -.120E+02 -.227E+03   -.231E+03 0.121E+02 0.228E+03   0.150E+01 -.720E-01 -.929E+00   -.274E-02 -.810E-03 0.332E-02
   0.315E+03 0.110E+03 -.128E+03   -.316E+03 -.111E+03 0.128E+03   0.137E+01 0.810E+00 -.349E+00   -.342E-02 -.964E-03 0.443E-02
   0.958E+00 -.126E+00 0.291E+03   -.972E+00 0.133E+00 -.293E+03   0.881E-02 -.135E-01 0.183E+01   0.991E-05 -.161E-04 -.313E-02
   -.315E+03 0.110E+03 -.128E+03   0.316E+03 -.111E+03 0.128E+03   -.137E+01 0.810E+00 -.349E+00   0.341E-02 -.963E-03 0.443E-02
   0.229E+03 0.120E+02 0.227E+03   -.231E+03 -.121E+02 -.228E+03   0.150E+01 0.720E-01 0.929E+00   -.273E-02 0.810E-03 -.332E-02
   -.229E+03 0.120E+02 0.227E+03   0.231E+03 -.121E+02 -.228E+03   -.150E+01 0.720E-01 0.929E+00   0.273E-02 0.808E-03 -.332E-02
   0.111E+03 -.233E+01 0.156E+03   -.111E+03 0.234E+01 -.157E+03   0.485E+00 -.176E-01 0.134E+01   -.225E-02 -.151E-03 -.399E-03
   0.654E+01 -.750E+00 -.375E+03   -.669E+01 0.839E+00 0.377E+03   0.152E+00 -.832E-01 -.187E+01   0.824E-03 0.241E-04 0.432E-02
   -.309E+03 -.110E+03 -.134E+03   0.310E+03 0.111E+03 0.134E+03   -.135E+01 -.812E+00 -.376E+00   0.322E-02 0.953E-03 0.386E-02
   0.211E+03 0.111E+02 -.181E+03   -.212E+03 -.111E+02 0.182E+03   0.155E+01 0.458E-01 -.109E+01   -.221E-02 0.717E-03 0.185E-02
   0.309E+03 -.110E+03 -.134E+03   -.310E+03 0.111E+03 0.134E+03   0.135E+01 -.812E+00 -.376E+00   -.323E-02 0.954E-03 0.386E-02
   0.654E+01 0.750E+00 0.375E+03   -.669E+01 -.840E+00 -.377E+03   0.152E+00 0.832E-01 0.187E+01   0.820E-03 -.235E-04 -.432E-02
   -.315E+03 -.110E+03 0.128E+03   0.316E+03 0.111E+03 -.128E+03   -.137E+01 -.810E+00 0.349E+00   0.343E-02 0.963E-03 -.443E-02
   -.211E+03 -.111E+02 0.181E+03   0.212E+03 0.111E+02 -.182E+03   -.155E+01 -.458E-01 0.109E+01   0.220E-02 -.716E-03 -.185E-02
   0.211E+03 -.111E+02 0.181E+03   -.212E+03 0.111E+02 -.182E+03   0.155E+01 -.458E-01 0.109E+01   -.220E-02 -.718E-03 -.185E-02
   -.654E+01 -.750E+00 -.375E+03   0.669E+01 0.840E+00 0.377E+03   -.152E+00 -.832E-01 -.187E+01   -.823E-03 0.229E-04 0.432E-02
   -.211E+03 0.111E+02 -.181E+03   0.212E+03 -.111E+02 0.182E+03   -.155E+01 0.458E-01 -.109E+01   0.222E-02 0.716E-03 0.185E-02
   0.309E+03 0.110E+03 0.134E+03   -.310E+03 -.111E+03 -.134E+03   0.135E+01 0.812E+00 0.376E+00   -.324E-02 -.954E-03 -.386E-02
 -----------------------------------------------------------------------------------------------
   0.155E-02 0.530E-03 -.204E-02   -.853E-12 -.171E-12 0.483E-12   0.666E-15 0.000E+00 0.111E-14   -.321E-04 -.179E-05 0.320E-05
 
 
 POSITION                                       TOTAL-FORCE (eV/Angst)
 -----------------------------------------------------------------------------------
      7.93068      6.73267      9.09697         0.000537     -0.012462     -0.030752
      1.85540      3.15237      9.09697        -0.000537     -0.012462     -0.030752
     17.71676      5.39661      1.18674         0.000537      0.012462      0.030752
     11.64148      1.81631      1.18674        -0.000537      0.012462      0.030752
     16.19958      1.76817      5.95167         0.020731     -0.009385      0.008785
     13.15797      1.07211      5.95660        -0.005658      0.009871      0.016141
      3.37189      3.89657      4.32711        -0.005658     -0.009871     -0.016141
     13.15866      5.34847      5.95167        -0.020731     -0.009385      0.008785
      6.46128      1.76834      1.79542         0.011351      0.011163      0.041963
     13.11088      6.78064      8.48829        -0.011351     -0.011163     -0.041963
      6.41350      3.20051      4.33205         0.020731      0.009385     -0.008785
      3.32480      5.34864      1.79542        -0.011351      0.011163      0.041963
      3.37258      6.78081      4.33205        -0.020731      0.009385     -0.008785
     16.24736      3.20034      8.48829         0.011351     -0.011163     -0.041963
     16.20027      4.65241      5.95660         0.005658      0.009871      0.016141
      6.41419      7.47687      4.32711         0.005658     -0.009871     -0.016141
     14.92015      6.78842      6.92361         0.019369     -0.001165     -0.010645
      5.13407      5.34086      3.36010         0.019369      0.001165      0.010645
     14.43809      3.20812      6.92361        -0.019369     -0.001165     -0.010645
      4.65201      1.76056      3.36010        -0.019369      0.001165      0.010645
     14.68075      1.40615      9.83560         0.004744      0.005837     -0.013909
      8.10217      1.75651      5.70986        -0.003891      0.002842     -0.016675
     14.67750      4.98645      9.83560        -0.004744      0.005837     -0.013909
      1.55466      7.13240      2.47606         0.021850     -0.001497      0.007810
     11.71533      5.38457      0.58884         0.012007      0.011258     -0.029105
      8.22303      7.13289      2.45774        -0.018190     -0.001039      0.014867
     17.64292      1.80427      0.58884        -0.012007      0.011258     -0.029105
     14.68245      1.40979      3.79617        -0.002185     -0.006642      0.016141
      4.89467      3.56253      0.44811         0.004744     -0.005837      0.013909
      7.85683      3.16441      9.69488        -0.012007     -0.011258      0.029105
      1.68391      5.33681      5.70986         0.003891      0.002842     -0.016675
     11.34074      4.99688      7.80765         0.021850      0.001497     -0.007810
      4.89142      7.14283      0.44811        -0.004744     -0.005837      0.013909
     18.01751      1.41658      7.80765        -0.021850      0.001497     -0.007810
     11.46999      6.79247      4.57386         0.003891     -0.002842      0.016675
     17.88825      3.21217      4.57386        -0.003891     -0.002842      0.016675
      1.92925      6.74471      9.69488         0.012007     -0.011258      0.029105
      4.88971      7.13919      6.48754         0.002185      0.006642     -0.016141
     18.00911      4.99639      7.82598        -0.018190      0.001039     -0.014867
      1.97687      1.76145      5.48648         0.005265      0.014211     -0.019817
     11.34913      1.41609      7.82598         0.018190      0.001039     -0.014867
     14.67579      4.99009      3.79617         0.002185     -0.006642      0.016141
      8.23143      3.55210      2.47606        -0.021850     -0.001497      0.007810
     17.59529      6.78753      4.79723        -0.005265     -0.014211      0.019817
     11.76295      3.20723      4.79723         0.005265     -0.014211      0.019817
      4.89637      3.55889      6.48754        -0.002185      0.006642     -0.016141
      7.80921      5.34175      5.48648        -0.005265      0.014211     -0.019817
      1.56305      3.55259      2.45774         0.018190     -0.001039      0.014867
 -----------------------------------------------------------------------------------
    total drift:                                0.001517      0.000528     -0.002038


--------------------------------------------------------------------------------------------------------



  FREE ENERGIE OF THE ION-ELECTRON SYSTEM (eV)
  ---------------------------------------------------
  free  energy   TOTEN  =      -241.81694488 eV

  energy  without entropy=     -241.80159507  energy(sigma->0) =     -241.80926997
 


--------------------------------------------------------------------------------------------------------


    POTLOK:  cpu time    0.1690: real time    0.1688


--------------------------------------------------------------------------------------------------------


     LOOP+:  cpu time  941.9828: real time  943.7967
    4ORBIT:  cpu time    0.0000: real time    0.0000
 


 total charge     
 
# of ion       s       p       d       tot
------------------------------------------
    1        1.836   4.710   0.019   6.565
    2        1.836   4.710   0.019   6.565
    3        1.836   4.710   0.019   6.565
    4        1.836   4.710   0.019   6.565
    5        0.293   6.298   2.992   9.582
    6        0.294   6.299   2.989   9.582
    7        0.294   6.299   2.989   9.582
    8        0.293   6.298   2.992   9.582
    9        0.297   6.303   2.964   9.564
   10        0.297   6.303   2.964   9.564
   11        0.293   6.298   2.992   9.582
   12        0.297   6.303   2.964   9.564
   13        0.293   6.298   2.992   9.582
   14        0.297   6.303   2.964   9.564
   15        0.294   6.299   2.989   9.582
   16        0.294   6.299   2.989   9.582
   17        1.327   2.398   0.000   3.725
   18        1.327   2.398   0.000   3.725
   19        1.327   2.398   0.000   3.725
   20        1.327   2.398   0.000   3.725
   21        1.610   3.254   0.020   4.884
   22        1.615   3.238   0.029   4.883
   23        1.610   3.254   0.020   4.884
   24        1.615   3.244   0.031   4.890
   25        1.606   3.266   0.009   4.881
   26        1.615   3.244   0.031   4.890
   27        1.606   3.266   0.009   4.881
   28        1.614   3.246   0.025   4.885
   29        1.610   3.254   0.020   4.884
   30        1.606   3.266   0.009   4.881
   31        1.615   3.238   0.029   4.883
   32        1.615   3.244   0.031   4.890
   33        1.610   3.254   0.020   4.884
   34        1.615   3.244   0.031   4.890
   35        1.615   3.238   0.029   4.883
   36        1.615   3.238   0.029   4.883
   37        1.606   3.266   0.009   4.881
   38        1.614   3.246   0.025   4.885
   39        1.615   3.244   0.031   4.890
   40        1.610   3.252   0.016   4.877
   41        1.615   3.244   0.031   4.890
   42        1.614   3.246   0.025   4.885
   43        1.615   3.244   0.031   4.890
   44        1.610   3.252   0.016   4.877
   45        1.610   3.252   0.016   4.877
   46        1.614   3.246   0.025   4.885
   47        1.610   3.252   0.016   4.877
   48        1.615   3.244   0.031   4.890
--------------------------------------------------
tot         61.326 195.007  36.501 292.833
 

 total amount of memory used by VASP MPI-rank0   222594. kBytes
=======================================================================

   base      :      30000. kBytes
   nonlr-proj:      10991. kBytes
   fftplans  :      10118. kBytes
   grid      :      19259. kBytes
   one-center:        124. kBytes
   wavefun   :     152102. kBytes
 
  
  
 General timing and accounting informations for this job:
 ========================================================
  
                  Total CPU time used (sec):      959.478
                            User time (sec):      955.752
                          System time (sec):        3.726
                         Elapsed time (sec):      962.306
  
                   Maximum memory used (kb):      318912.
                   Average memory used (kb):           0.
  
                          Minor page faults:        29197
                          Major page faults:            0
                 Voluntary context switches:          537
