  48  48   0   0
  0.3002598E+02  0.1957216E-08  0.7160604E-09  0.1037701E-08  0.5000000E-15
  1.000000000000000E-004
  CAR 
 Ga2BiAs                                 
      7.12059363    -31.69988504  301      2.12993716      1.00000000
    -31.700  0.0000E+00  0.0000E+00
    -31.570  0.0000E+00  0.0000E+00
    -31.441  0.0000E+00  0.0000E+00
    -31.312 -0.4973E-26 -0.6435E-27
    -31.182 -0.1039E-21 -0.1344E-22
    -31.053 -0.9353E-18 -0.1210E-18
    -30.923 -0.3625E-14 -0.4692E-15
    -30.794 -0.5839E-11 -0.7561E-12
    -30.665 -0.4131E-08 -0.5353E-09
    -30.535 -0.1243E-05 -0.1613E-06
    -30.406 -0.1576E-03 -0.2055E-04
    -30.276 -0.8295E-02 -0.1094E-02
    -30.147 -0.1755E+00 -0.2381E-01
    -30.018 -0.1370E+01 -0.2011E+00
    -29.888 -0.2434E+01 -0.5161E+00
    -29.759  0.1121E+02  0.9348E+00
    -29.629  0.5425E+02  0.7955E+01
    -29.500  0.1045E+03  0.2148E+02
    -29.371  0.1221E+03  0.3727E+02
    -29.241  0.1036E+03  0.5068E+02
    -29.112  0.7790E+02  0.6076E+02
    -28.982  0.6293E+02  0.6890E+02
    -28.853  0.2700E+02  0.7240E+02
    -28.724 -0.4130E+00  0.7234E+02
    -28.594 -0.2253E+01  0.7205E+02
    -28.465 -0.3665E+00  0.7200E+02
    -28.335 -0.2011E-01  0.7200E+02
    -28.206 -0.4359E-03  0.7200E+02
    -28.077 -0.3915E-05  0.7200E+02
    -27.947 -0.1484E-07  0.7200E+02
    -27.818 -0.2396E-10  0.7200E+02
    -27.688 -0.1373E-13  0.7200E+02
    -27.559  0.0000E+00  0.7200E+02
    -27.430  0.0000E+00  0.7200E+02
    -27.300  0.0000E+00  0.7200E+02
    -27.171  0.0000E+00  0.7200E+02
    -27.041  0.0000E+00  0.7200E+02
    -26.912  0.0000E+00  0.7200E+02
    -26.783  0.0000E+00  0.7200E+02
    -26.653  0.0000E+00  0.7200E+02
    -26.524  0.0000E+00  0.7200E+02
    -26.394  0.0000E+00  0.7200E+02
    -26.265  0.0000E+00  0.7200E+02
    -26.136  0.0000E+00  0.7200E+02
    -26.006  0.0000E+00  0.7200E+02
    -25.877  0.0000E+00  0.7200E+02
    -25.747  0.0000E+00  0.7200E+02
    -25.618  0.0000E+00  0.7200E+02
    -25.489  0.0000E+00  0.7200E+02
    -25.359  0.0000E+00  0.7200E+02
    -25.230  0.0000E+00  0.7200E+02
    -25.100  0.0000E+00  0.7200E+02
    -24.971  0.0000E+00  0.7200E+02
    -24.842  0.0000E+00  0.7200E+02
    -24.712  0.0000E+00  0.7200E+02
    -24.583  0.0000E+00  0.7200E+02
    -24.453  0.0000E+00  0.7200E+02
    -24.324  0.0000E+00  0.7200E+02
    -24.195  0.0000E+00  0.7200E+02
    -24.065  0.0000E+00  0.7200E+02
    -23.936  0.0000E+00  0.7200E+02
    -23.806  0.0000E+00  0.7200E+02
    -23.677  0.0000E+00  0.7200E+02
    -23.548  0.0000E+00  0.7200E+02
    -23.418  0.0000E+00  0.7200E+02
    -23.289  0.0000E+00  0.7200E+02
    -23.159  0.0000E+00  0.7200E+02
    -23.030  0.0000E+00  0.7200E+02
    -22.901  0.0000E+00  0.7200E+02
    -22.771  0.0000E+00  0.7200E+02
    -22.642  0.0000E+00  0.7200E+02
    -22.512  0.0000E+00  0.7200E+02
    -22.383  0.0000E+00  0.7200E+02
    -22.254  0.0000E+00  0.7200E+02
    -22.124  0.0000E+00  0.7200E+02
    -21.995  0.0000E+00  0.7200E+02
    -21.865  0.0000E+00  0.7200E+02
    -21.736  0.0000E+00  0.7200E+02
    -21.607  0.0000E+00  0.7200E+02
    -21.477  0.0000E+00  0.7200E+02
    -21.348  0.0000E+00  0.7200E+02
    -21.218  0.0000E+00  0.7200E+02
    -21.089  0.0000E+00  0.7200E+02
    -20.960 -0.9698E-27  0.7200E+02
    -20.830 -0.2370E-22  0.7200E+02
    -20.701 -0.2488E-18  0.7200E+02
    -20.571 -0.1121E-14  0.7200E+02
    -20.442 -0.2094E-11  0.7200E+02
    -20.313 -0.1711E-08  0.7200E+02
    -20.183 -0.5912E-06  0.7200E+02
    -20.054 -0.8562E-04  0.7200E+02
    -19.924 -0.5094E-02  0.7200E+02
    -19.795 -0.1190E+00  0.7198E+02
    -19.666 -0.9549E+00  0.7186E+02
    -19.536 -0.8658E+00  0.7175E+02
    -19.407  0.1245E+02  0.7336E+02
    -19.277  0.3140E+02  0.7742E+02
    -19.148  0.2019E+02  0.8003E+02
    -19.019  0.1412E+01  0.8022E+02
    -18.889 -0.1394E+01  0.8004E+02
    -18.760 -0.2719E+00  0.8000E+02
    -18.630 -0.1622E-01  0.8000E+02
    -18.501 -0.3697E-03  0.8000E+02
    -18.372 -0.3424E-05  0.8000E+02
    -18.242 -0.1322E-07  0.8000E+02
    -18.113 -0.2155E-10  0.8000E+02
    -17.983 -0.1373E-13  0.8000E+02
    -17.854  0.0000E+00  0.8000E+02
    -17.725  0.0000E+00  0.8000E+02
    -17.595  0.0000E+00  0.8000E+02
    -17.466  0.0000E+00  0.8000E+02
    -17.336  0.0000E+00  0.8000E+02
    -17.207  0.0000E+00  0.8000E+02
    -17.078  0.0000E+00  0.8000E+02
    -16.948  0.0000E+00  0.8000E+02
    -16.819  0.0000E+00  0.8000E+02
    -16.689  0.0000E+00  0.8000E+02
    -16.560  0.0000E+00  0.8000E+02
    -16.430  0.0000E+00  0.8000E+02
    -16.301  0.0000E+00  0.8000E+02
    -16.172  0.0000E+00  0.8000E+02
    -16.042  0.0000E+00  0.8000E+02
    -15.913  0.0000E+00  0.8000E+02
    -15.783  0.0000E+00  0.8000E+02
    -15.654  0.0000E+00  0.8000E+02
    -15.525  0.0000E+00  0.8000E+02
    -15.395 -0.6067E-28  0.8000E+02
    -15.266 -0.1674E-23  0.8000E+02
    -15.136 -0.1991E-19  0.8000E+02
    -15.007 -0.1020E-15  0.8000E+02
    -14.878 -0.2181E-12  0.8000E+02
    -14.748 -0.2054E-09  0.8000E+02
    -14.619 -0.8278E-07  0.8000E+02
    -14.489 -0.1422E-04  0.8000E+02
    -14.360 -0.1030E-02  0.8000E+02
    -14.231 -0.3076E-01  0.8000E+02
    -14.101 -0.3543E+00  0.7995E+02
    -13.972 -0.1159E+01  0.7980E+02
    -13.842  0.2709E+01  0.8015E+02
    -13.713  0.1790E+02  0.8247E+02
    -13.584  0.2647E+02  0.8589E+02
    -13.454  0.2891E+02  0.8963E+02
    -13.325  0.5321E+02  0.9652E+02
    -13.195  0.6365E+02  0.1048E+03
    -13.066  0.4332E+02  0.1104E+03
    -12.937  0.2740E+02  0.1139E+03
    -12.807  0.2638E+02  0.1173E+03
    -12.678  0.1964E+02  0.1199E+03
    -12.548  0.2349E+02  0.1229E+03
    -12.419  0.2993E+02  0.1268E+03
    -12.290  0.1075E+02  0.1282E+03
    -12.160 -0.2404E+01  0.1279E+03
    -12.031  0.7110E+01  0.1288E+03
    -11.901  0.2844E+02  0.1325E+03
    -11.772  0.2403E+02  0.1356E+03
    -11.643  0.7962E+01  0.1366E+03
    -11.513  0.1417E+02  0.1384E+03
    -11.384  0.2171E+02  0.1412E+03
    -11.254  0.1725E+02  0.1435E+03
    -11.125  0.5290E+01  0.1442E+03
    -10.996 -0.6563E+00  0.1441E+03
    -10.866 -0.4809E+00  0.1440E+03
    -10.737 -0.5755E-01  0.1440E+03
    -10.607 -0.2415E-02  0.1440E+03
    -10.478 -0.3999E-04  0.1440E+03
    -10.349 -0.2724E-06  0.1440E+03
    -10.219 -0.7776E-09  0.1440E+03
    -10.090 -0.9403E-12  0.1440E+03
     -9.960  0.0000E+00  0.1440E+03
     -9.831  0.0000E+00  0.1440E+03
     -9.702  0.0000E+00  0.1440E+03
     -9.572  0.0000E+00  0.1440E+03
     -9.443  0.0000E+00  0.1440E+03
     -9.313  0.0000E+00  0.1440E+03
     -9.184  0.0000E+00  0.1440E+03
     -9.055  0.0000E+00  0.1440E+03
     -8.925  0.0000E+00  0.1440E+03
     -8.796  0.0000E+00  0.1440E+03
     -8.666  0.0000E+00  0.1440E+03
     -8.537  0.0000E+00  0.1440E+03
     -8.408  0.0000E+00  0.1440E+03
     -8.278  0.0000E+00  0.1440E+03
     -8.149  0.0000E+00  0.1440E+03
     -8.019  0.0000E+00  0.1440E+03
     -7.890 -0.2416E-28  0.1440E+03
     -7.761 -0.8184E-24  0.1440E+03
     -7.631 -0.1192E-19  0.1440E+03
     -7.502 -0.7510E-16  0.1440E+03
     -7.372 -0.2000E-12  0.1440E+03
     -7.243 -0.2311E-09  0.1440E+03
     -7.114 -0.1153E-06  0.1440E+03
     -6.984 -0.2452E-04  0.1440E+03
     -6.855 -0.2191E-02  0.1440E+03
     -6.725 -0.8004E-01  0.1440E+03
     -6.596 -0.1113E+01  0.1438E+03
     -6.467 -0.4407E+01  0.1433E+03
     -6.337  0.9034E+01  0.1444E+03
     -6.208  0.6854E+02  0.1533E+03
     -6.078  0.8976E+02  0.1649E+03
     -5.949  0.2985E+02  0.1688E+03
     -5.820 -0.3436E+01  0.1683E+03
     -5.690 -0.2400E+01  0.1680E+03
     -5.561 -0.2729E+00  0.1680E+03
     -5.431 -0.1102E-01  0.1680E+03
     -5.302 -0.1780E-03  0.1680E+03
     -5.173 -0.1197E-05  0.1680E+03
     -5.043 -0.3446E-08  0.1680E+03
     -4.914 -0.1936E-07  0.1680E+03
     -4.784 -0.4281E-05  0.1680E+03
     -4.655 -0.3934E-03  0.1680E+03
     -4.526 -0.1459E-01  0.1680E+03
     -4.396 -0.2027E+00  0.1680E+03
     -4.267 -0.7849E+00  0.1679E+03
     -4.137  0.1626E+01  0.1681E+03
     -4.008  0.1148E+02  0.1696E+03
     -3.879  0.1504E+02  0.1715E+03
     -3.749  0.1200E+02  0.1731E+03
     -3.620  0.2215E+02  0.1759E+03
     -3.490  0.3373E+02  0.1803E+03
     -3.361  0.2367E+02  0.1834E+03
     -3.232  0.1268E+02  0.1850E+03
     -3.102  0.2878E+02  0.1887E+03
     -2.973  0.4688E+02  0.1948E+03
     -2.843  0.3342E+02  0.1991E+03
     -2.714  0.1885E+02  0.2016E+03
     -2.585  0.4522E+02  0.2074E+03
     -2.455  0.7159E+02  0.2167E+03
     -2.326  0.5814E+02  0.2242E+03
     -2.196  0.4998E+02  0.2307E+03
     -2.067  0.5431E+02  0.2377E+03
     -1.938  0.3803E+02  0.2426E+03
     -1.808  0.4156E+02  0.2480E+03
     -1.679  0.6108E+02  0.2559E+03
     -1.549  0.5716E+02  0.2633E+03
     -1.420  0.3985E+02  0.2684E+03
     -1.291  0.2723E+02  0.2720E+03
     -1.161  0.3852E+02  0.2769E+03
     -1.032  0.5551E+02  0.2841E+03
     -0.902  0.4852E+02  0.2904E+03
     -0.773  0.3144E+02  0.2945E+03
     -0.644  0.3245E+02  0.2987E+03
     -0.514  0.5982E+02  0.3064E+03
     -0.385  0.6814E+02  0.3152E+03
     -0.255  0.5347E+02  0.3222E+03
     -0.126  0.3750E+02  0.3270E+03
      0.004  0.2663E+02  0.3305E+03
      0.133  0.3663E+02  0.3352E+03
      0.262  0.4995E+02  0.3417E+03
      0.392  0.4894E+02  0.3480E+03
      0.521  0.4190E+02  0.3534E+03
      0.651  0.3752E+02  0.3583E+03
      0.780  0.2847E+02  0.3620E+03
      0.909  0.1315E+02  0.3637E+03
      1.039  0.1134E+02  0.3651E+03
      1.168  0.2577E+02  0.3685E+03
      1.298  0.2282E+02  0.3714E+03
      1.427  0.1305E+02  0.3731E+03
      1.556  0.2071E+02  0.3758E+03
      1.686  0.2372E+02  0.3788E+03
      1.815  0.2199E+02  0.3817E+03
      1.945  0.2563E+02  0.3850E+03
      2.074  0.1944E+02  0.3875E+03
      2.203  0.5074E+01  0.3882E+03
      2.333 -0.8554E+00  0.3881E+03
      2.462 -0.6997E+00  0.3880E+03
      2.592 -0.1358E+01  0.3878E+03
      2.721 -0.5208E+00  0.3877E+03
      2.850  0.1699E+02  0.3899E+03
      2.980  0.4282E+02  0.3955E+03
      3.109  0.3211E+02  0.3996E+03
      3.239  0.3884E+01  0.4001E+03
      3.368 -0.9078E+00  0.4000E+03
      3.497  0.1761E+02  0.4023E+03
      3.627  0.3031E+02  0.4062E+03
      3.756  0.1758E+02  0.4085E+03
      3.886  0.1326E+02  0.4102E+03
      4.015  0.1340E+02  0.4119E+03
      4.144  0.1696E+02  0.4141E+03
      4.274  0.4232E+02  0.4196E+03
      4.403  0.6659E+02  0.4282E+03
      4.533  0.6017E+02  0.4360E+03
      4.662  0.4427E+02  0.4417E+03
      4.791  0.5633E+02  0.4490E+03
      4.921  0.5589E+02  0.4563E+03
      5.050  0.3550E+02  0.4609E+03
      5.180  0.2044E+02  0.4635E+03
      5.309  0.5419E+01  0.4642E+03
      5.438 -0.9450E+00  0.4641E+03
      5.568 -0.5783E+00  0.4640E+03
      5.697 -0.7203E-01  0.4640E+03
      5.827 -0.3323E-02  0.4640E+03
      5.956 -0.6256E-04  0.4640E+03
      6.085 -0.4951E-06  0.4640E+03
      6.215 -0.1666E-08  0.4640E+03
      6.344 -0.2399E-11  0.4640E+03
      6.474  0.0000E+00  0.4640E+03
      6.603  0.0000E+00  0.4640E+03
      6.732  0.0000E+00  0.4640E+03
      6.862  0.0000E+00  0.4640E+03
      6.991  0.0000E+00  0.4640E+03
      7.121  0.0000E+00  0.4640E+03
