       N       E                     dE             d eps       ncg     rms          rms(c)
DAV:   1    -0.251168915968E+03   -0.25117E+03   -0.54737E+01   768   0.216E+01    0.659E+01
DAV:   2    -0.238961249707E+03    0.12208E+02   -0.37507E+01   768   0.189E+01    0.256E+01
DAV:   3    -0.237671356750E+03    0.12899E+01   -0.86885E+00   600   0.623E+00    0.948E+00
DAV:   4    -0.237814275365E+03   -0.14292E+00   -0.17864E+00   704   0.367E+00    0.295E+00
DAV:   5    -0.237776582909E+03    0.37692E-01   -0.27492E-01   752   0.237E+00    0.195E+00
DAV:   6    -0.237762618164E+03    0.13965E-01   -0.17801E-01   784   0.186E+00    0.129E+00
DAV:   7    -0.237753579917E+03    0.90382E-02   -0.85797E-02   736   0.108E+00    0.457E-01
DAV:   8    -0.237756681108E+03   -0.31012E-02   -0.20142E-02   704   0.574E-01    0.419E-01
DAV:   9    -0.237755762330E+03    0.91878E-03   -0.50248E-03   696   0.390E-01    0.212E-01
DAV:  10    -0.237756259675E+03   -0.49735E-03   -0.10014E-03   624   0.980E-02    0.177E-01
DAV:  11    -0.237756332512E+03   -0.72838E-04   -0.41554E-04   456   0.121E-01
   1 F= -.23775633E+03 E0= -.23777368E+03  d E =0.520350E-01
