<?xml version="1.0" encoding="ISO-8859-1"?>
<modeling>
 <generator>
  <i name="program" type="string">vasp </i>
  <i name="version" type="string">5.4.4.18Apr17-6-g9f103f2a35  </i>
  <i name="subversion" type="string">(build Aug 03 2021 19:59:50) complex            parallel </i>
  <i name="platform" type="string">LinuxIFC </i>
  <i name="date" type="string">2021 08 29 </i>
  <i name="time" type="string">06:23:12 </i>
 </generator>
 <incar>
  <i type="string" name="SYSTEM"> Ga2BiAs</i>
  <i type="string" name="PREC">accurate</i>
  <i type="int" name="ICHARG">     2</i>
  <i name="EDIFF">      0.00010000</i>
  <i name="EDIFFG">     -0.02000000</i>
  <i name="ENCUT">    500.00000000</i>
  <i type="string" name="LREAL"> Auto</i>
  <i type="logical" name="LWAVE"> T  </i>
  <i type="logical" name="LCHARG"> T  </i>
  <v type="int" name="KPOINT_BSE">    -1     0     0     0</v>
 </incar>
 <structure name="primitive_cell" >
  <crystal>
   <varray name="basis" >
    <v>      19.57216263       0.00000000       0.00000000 </v>
    <v>       0.00000000       7.16060400       0.00000000 </v>
    <v>       0.00000000       1.38837625      10.28371310 </v>
   </varray>
   <i name="volume">   1441.24702706 </i>
   <varray name="rec_basis" >
    <v>       0.05109297       0.00000000       0.00000000 </v>
    <v>       0.00000000       0.13965302      -0.01885418 </v>
    <v>       0.00000000       0.00000000       0.09724114 </v>
   </varray>
  </crystal>
  <varray name="positions" >
   <v>       0.40520199      -0.23127803      -0.11540001 </v>
   <v>       0.40142899       0.25912997      -0.05725903 </v>
   <v>       0.39899600      -0.35745099      -0.46648798 </v>
   <v>       0.25008300       0.48906903       0.04357500 </v>
   <v>       0.24991700      -0.01093101       0.04357500 </v>
   <v>       0.24983000      -0.12530797      -0.36914400 </v>
   <v>       0.41396401       0.13764700      -0.44476699 </v>
   <v>      -0.42056800      -0.44937698      -0.24077496 </v>
   <v>       0.42013902      -0.05020896       0.23899301 </v>
   <v>      -0.42013902       0.05020900      -0.23899299 </v>
   <v>       0.42056800       0.44937697       0.24077501 </v>
   <v>      -0.40142899      -0.25913004       0.05725900 </v>
   <v>       0.33012598       0.21310298       0.17458900 </v>
   <v>       0.32771999      -0.03741596       0.42077301 </v>
   <v>       0.25016998       0.37469200      -0.36914400 </v>
   <v>      -0.33012601      -0.21310304      -0.17458891 </v>
   <v>       0.26231500      -0.31748496       0.32674001 </v>
   <v>       0.16987399      -0.28689695       0.17458900 </v>
   <v>      -0.40520199       0.23127799       0.11540000 </v>
   <v>      -0.41396396      -0.13764692       0.44476701 </v>
   <v>       0.09857100      -0.24087006      -0.05725903 </v>
   <v>       0.32768500       0.36528399       0.42125301 </v>
   <v>      -0.32768498      -0.36528409      -0.42125303 </v>
   <v>      -0.32772001       0.03741600      -0.42077303 </v>
   <v>       0.17231500      -0.13471601       0.42125301 </v>
   <v>       0.23768500       0.18251499       0.32674001 </v>
   <v>      -0.39899600       0.35745098       0.46648801 </v>
   <v>      -0.25008303      -0.48906904      -0.04357495 </v>
   <v>      -0.24991697       0.01093099      -0.04357495 </v>
   <v>       0.09479800       0.26872201      -0.11540001 </v>
   <v>       0.17228000       0.46258400       0.42077301 </v>
   <v>       0.08603599      -0.36235305      -0.44476699 </v>
   <v>       0.10100399       0.14254899      -0.46648798 </v>
   <v>      -0.23768503      -0.18251501      -0.32674001 </v>
   <v>       0.07986100       0.44979101       0.23899301 </v>
   <v>       0.07943200      -0.05062300       0.24077501 </v>
   <v>      -0.26231497       0.31748499      -0.32674001 </v>
   <v>      -0.25017000      -0.37469200       0.36914400 </v>
   <v>      -0.24983000       0.12530800       0.36914400 </v>
   <v>      -0.16987404       0.28689700      -0.17458891 </v>
   <v>      -0.17228004      -0.46258400      -0.42077303 </v>
   <v>      -0.17231502       0.13471601      -0.42125303 </v>
   <v>      -0.07986103      -0.44979101      -0.23899299 </v>
   <v>      -0.07943205       0.05062298      -0.24077496 </v>
   <v>      -0.09479801      -0.26872201       0.11540000 </v>
   <v>      -0.09857096       0.24087000       0.05725900 </v>
   <v>      -0.10100405      -0.14254898       0.46648801 </v>
   <v>      -0.08603599       0.36235298       0.44476701 </v>
  </varray>
 </structure>
 <varray name="primitive_index" >
  <v type="int" >        1 </v>
  <v type="int" >       30 </v>
  <v type="int" >       47 </v>
  <v type="int" >       29 </v>
  <v type="int" >       33 </v>
  <v type="int" >       38 </v>
  <v type="int" >       22 </v>
  <v type="int" >       32 </v>
  <v type="int" >       26 </v>
  <v type="int" >       41 </v>
  <v type="int" >       43 </v>
  <v type="int" >       25 </v>
  <v type="int" >        9 </v>
  <v type="int" >       16 </v>
  <v type="int" >       46 </v>
  <v type="int" >       10 </v>
  <v type="int" >       18 </v>
  <v type="int" >       12 </v>
  <v type="int" >        4 </v>
  <v type="int" >       35 </v>
  <v type="int" >       37 </v>
  <v type="int" >       11 </v>
  <v type="int" >        8 </v>
  <v type="int" >        6 </v>
  <v type="int" >       13 </v>
  <v type="int" >       20 </v>
  <v type="int" >       45 </v>
  <v type="int" >       23 </v>
  <v type="int" >       21 </v>
  <v type="int" >        2 </v>
  <v type="int" >        7 </v>
  <v type="int" >       31 </v>
  <v type="int" >       40 </v>
  <v type="int" >       17 </v>
  <v type="int" >       48 </v>
  <v type="int" >       24 </v>
  <v type="int" >       19 </v>
  <v type="int" >       42 </v>
  <v type="int" >       28 </v>
  <v type="int" >       14 </v>
  <v type="int" >       15 </v>
  <v type="int" >        5 </v>
  <v type="int" >       39 </v>
  <v type="int" >       34 </v>
  <v type="int" >        3 </v>
  <v type="int" >       27 </v>
  <v type="int" >       44 </v>
  <v type="int" >       36 </v>
 </varray>
 <kpoints>
  <generation param="Gamma">
   <v type="int" name="divisions">       1        1        1 </v>
   <v name="usershift">      0.00000000       0.00000000       0.00000000 </v>
   <v name="genvec1">      1.00000000       0.00000000       0.00000000 </v>
   <v name="genvec2">      0.00000000       1.00000000       0.00000000 </v>
   <v name="genvec3">      0.00000000       0.00000000       1.00000000 </v>
   <v name="shift">      0.00000000       0.00000000       0.00000000 </v>
  </generation>
  <varray name="kpointlist" >
   <v>       0.00000000       0.00000000       0.00000000 </v>
  </varray>
  <varray name="weights" >
   <v>       1.00000000 </v>
  </varray>
 </kpoints>
 <parameters>
  <separator name="general" >
   <i type="string" name="SYSTEM">Ga2BiAs</i>
   <i type="logical" name="LCOMPAT"> F  </i>
  </separator>
  <separator name="electronic" >
   <i type="string" name="PREC">accura</i>
   <i name="ENMAX">    500.00000000</i>
   <i name="ENAUG">    503.85200000</i>
   <i name="EDIFF">      0.00010000</i>
   <i type="int" name="IALGO">    38</i>
   <i type="int" name="IWAVPR">    10</i>
   <i type="int" name="NBANDS">   232</i>
   <i name="NELECT">    388.00000000</i>
   <i type="int" name="TURBO">     0</i>
   <i type="int" name="IRESTART">     0</i>
   <i type="int" name="NREBOOT">     0</i>
   <i type="int" name="NMIN">     0</i>
   <i name="EREF">      0.00000000</i>
   <separator name="electronic smearing" >
    <i type="int" name="ISMEAR">     1</i>
    <i name="SIGMA">      0.20000000</i>
    <i name="KSPACING">      0.50000000</i>
    <i type="logical" name="KGAMMA"> T  </i>
   </separator>
   <separator name="electronic projectors" >
    <i type="logical" name="LREAL"> T  </i>
    <v name="ROPT">     -0.00025000     -0.00025000     -0.00025000     -0.00025000</v>
    <i type="int" name="LMAXPAW">  -100</i>
    <i type="int" name="LMAXMIX">     2</i>
    <i type="logical" name="NLSPLINE"> F  </i>
   </separator>
   <separator name="electronic startup" >
    <i type="int" name="ISTART">     1</i>
    <i type="int" name="ICHARG">     2</i>
    <i type="int" name="INIWAV">     1</i>
   </separator>
   <separator name="electronic spin" >
    <i type="int" name="ISPIN">     1</i>
    <i type="logical" name="LNONCOLLINEAR"> F  </i>
    <v name="MAGMOM">      1.00000000      1.00000000      1.00000000      1.00000000      1.00000000      1.00000000      1.00000000      1.00000000      1.00000000      1.00000000      1.00000000      1.00000000      1.00000000      1.00000000      1.00000000      1.00000000      1.00000000      1.00000000      1.00000000      1.00000000
      1.00000000      1.00000000      1.00000000      1.00000000      1.00000000      1.00000000      1.00000000      1.00000000      1.00000000      1.00000000      1.00000000      1.00000000      1.00000000      1.00000000      1.00000000      1.00000000      1.00000000      1.00000000      1.00000000      1.00000000
      1.00000000      1.00000000      1.00000000      1.00000000      1.00000000      1.00000000      1.00000000      1.00000000</v>
    <i name="NUPDOWN">     -1.00000000</i>
    <i type="logical" name="LSORBIT"> F  </i>
    <v name="SAXIS">      0.00000000      0.00000000      1.00000000</v>
    <i type="logical" name="LSPIRAL"> F  </i>
    <v name="QSPIRAL">      0.00000000      0.00000000      0.00000000</v>
    <i type="logical" name="LZEROZ"> F  </i>
   </separator>
   <separator name="electronic exchange-correlation" >
    <i type="logical" name="LASPH"> F  </i>
    <i type="logical" name="LMETAGGA"> F  </i>
   </separator>
   <separator name="electronic convergence" >
    <i type="int" name="NELM">    60</i>
    <i type="int" name="NELMDL">     0</i>
    <i type="int" name="NELMIN">     2</i>
    <i name="ENINI">    500.00000000</i>
    <separator name="electronic convergence detail" >
     <i type="logical" name="LDIAG"> T  </i>
     <i type="logical" name="LSUBROT"> F  </i>
     <i name="WEIMIN">      0.00000000</i>
     <i name="EBREAK">      0.00000011</i>
     <i name="DEPER">      0.30000000</i>
     <i type="int" name="NRMM">     4</i>
     <i name="TIME">      0.40000000</i>
    </separator>
   </separator>
   <separator name="electronic mixer" >
    <i name="AMIX">      0.40000000</i>
    <i name="BMIX">      1.00000000</i>
    <i name="AMIN">      0.10000000</i>
    <i name="AMIX_MAG">      1.60000000</i>
    <i name="BMIX_MAG">      1.00000000</i>
    <separator name="electronic mixer details" >
     <i type="int" name="IMIX">     4</i>
     <i type="logical" name="MIXFIRST"> F  </i>
     <i type="int" name="MAXMIX">   -45</i>
     <i name="WC">    100.00000000</i>
     <i type="int" name="INIMIX">     1</i>
     <i type="int" name="MIXPRE">     1</i>
     <i type="int" name="MREMOVE">     5</i>
    </separator>
   </separator>
   <separator name="electronic dipolcorrection" >
    <i type="logical" name="LDIPOL"> F  </i>
    <i type="logical" name="LMONO"> F  </i>
    <i type="int" name="IDIPOL">     0</i>
    <i name="EPSILON">      1.00000000</i>
    <v name="DIPOL">   -100.00000000   -100.00000000   -100.00000000</v>
    <i name="EFIELD">      0.00000000</i>
   </separator>
  </separator>
  <separator name="grids" >
   <i type="int" name="NGX">   144</i>
   <i type="int" name="NGY">    54</i>
   <i type="int" name="NGZ">    80</i>
   <i type="int" name="NGXF">   288</i>
   <i type="int" name="NGYF">   108</i>
   <i type="int" name="NGZF">   160</i>
   <i type="logical" name="ADDGRID"> F  </i>
  </separator>
  <separator name="ionic" >
   <i type="int" name="NSW">     0</i>
   <i type="int" name="IBRION">    -1</i>
   <i type="int" name="MDALGO">     0</i>
   <i type="int" name="ISIF">     2</i>
   <i name="PSTRESS">      0.00000000</i>
   <i name="EDIFFG">     -0.02000000</i>
   <i type="int" name="NFREE">     0</i>
   <i name="POTIM">      0.50000000</i>
   <i name="SMASS">     -3.00000000</i>
   <i name="SCALEE">      1.00000000</i>
  </separator>
  <separator name="ionic md" >
   <i name="TEBEG">      0.00010000</i>
   <i name="TEEND">      0.00010000</i>
   <i type="int" name="NBLOCK">     1</i>
   <i type="int" name="KBLOCK">     1</i>
   <i type="int" name="NPACO">   256</i>
   <i name="APACO">     16.00000000</i>
  </separator>
  <separator name="symmetry" >
   <i type="int" name="ISYM">     2</i>
   <i name="SYMPREC">      0.00001000</i>
  </separator>
  <separator name="dos" >
   <i type="int" name="LORBIT">     0</i>
   <v name="RWIGS">     -1.00000000     -1.00000000     -1.00000000     -1.00000000</v>
   <i type="int" name="NEDOS">   301</i>
   <i name="EMIN">     10.00000000</i>
   <i name="EMAX">    -10.00000000</i>
   <i name="EFERMI">      0.00000000</i>
  </separator>
  <separator name="writing" >
   <i type="int" name="NWRITE">     2</i>
   <i type="logical" name="LWAVE"> T  </i>
   <i type="logical" name="LDOWNSAMPLE"> F  </i>
   <i type="logical" name="LCHARG"> T  </i>
   <i type="logical" name="LPARD"> F  </i>
   <i type="logical" name="LVTOT"> F  </i>
   <i type="logical" name="LVHAR"> F  </i>
   <i type="logical" name="LELF"> F  </i>
   <i type="logical" name="LOPTICS"> F  </i>
   <v name="STM">      0.00000000      0.00000000      0.00000000      0.00000000      0.00000000      0.00000000      0.00000000</v>
  </separator>
  <separator name="performance" >
   <i type="int" name="NPAR">     4</i>
   <i type="int" name="NSIM">     4</i>
   <i type="int" name="NBLK">    -1</i>
   <i type="logical" name="LPLANE"> T  </i>
   <i type="logical" name="LSCALAPACK"> T  </i>
   <i type="logical" name="LSCAAWARE"> F  </i>
   <i type="logical" name="LSCALU"> F  </i>
   <i type="logical" name="LASYNC"> F  </i>
   <i type="logical" name="LORBITALREAL"> F  </i>
  </separator>
  <separator name="miscellaneous" >
   <i type="int" name="IDIOT">     3</i>
   <i type="int" name="ISPECIAL">     0</i>
   <i type="logical" name="LMUSIC"> F  </i>
   <v name="POMASS">    132.90000000     92.00000000     32.06600000     79.90400000</v>
   <v name="DARWINR">      0.00000000      0.00000000      0.00000000      0.00000000</v>
   <v name="DARWINV">      1.00000000      1.00000000      1.00000000      1.00000000</v>
   <i type="logical" name="LCORR"> T  </i>
  </separator>
  <i type="logical" name="GGA_COMPAT"> T  </i>
  <i type="logical" name="LBERRY"> F  </i>
  <i type="int" name="ICORELEVEL">     0</i>
  <i type="logical" name="LDAU"> F  </i>
  <i type="int" name="I_CONSTRAINED_M">     0</i>
  <separator name="electronic exchange-correlation" >
   <i type="string" name="GGA">--</i>
   <i type="int" name="VOSKOWN">     0</i>
   <i type="logical" name="LHFCALC"> F  </i>
   <i type="string" name="PRECFOCK"></i>
   <i type="logical" name="LSYMGRAD"> F  </i>
   <i type="logical" name="LHFONE"> F  </i>
   <i type="logical" name="LRHFCALC"> F  </i>
   <i type="logical" name="LTHOMAS"> F  </i>
   <i type="logical" name="LMODELHF"> F  </i>
   <i name="ENCUT4O">     -1.00000000</i>
   <i type="int" name="EXXOEP">     0</i>
   <i type="int" name="FOURORBIT">     0</i>
   <i name="AEXX">      0.00000000</i>
   <i name="HFALPHA">      0.00000000</i>
   <i name="MCALPHA">      0.00000000</i>
   <i name="ALDAX">      1.00000000</i>
   <i name="AGGAX">      1.00000000</i>
   <i name="ALDAC">      1.00000000</i>
   <i name="AGGAC">      1.00000000</i>
   <i type="int" name="NKREDX">     1</i>
   <i type="int" name="NKREDY">     1</i>
   <i type="int" name="NKREDZ">     1</i>
   <i type="logical" name="SHIFTRED"> F  </i>
   <i type="logical" name="ODDONLY"> F  </i>
   <i type="logical" name="EVENONLY"> F  </i>
   <i type="int" name="LMAXFOCK">     0</i>
   <i type="int" name="NMAXFOCKAE">     0</i>
   <i type="logical" name="LFOCKAEDFT"> F  </i>
   <i name="HFSCREEN">      0.00000000</i>
   <i name="HFSCREENC">      0.00000000</i>
   <i type="int" name="NBANDSGWLOW">     0</i>
  </separator>
  <separator name="vdW DFT" >
   <i type="logical" name="LUSE_VDW"> F  </i>
   <i name="Zab_VDW">     -0.84910000</i>
   <i name="PARAM1">      0.12340000</i>
   <i name="PARAM2">      1.00000000</i>
   <i name="PARAM3">      0.00000000</i>
  </separator>
  <separator name="model GW" >
   <i type="int" name="MODEL_GW">     0</i>
   <i name="MODEL_EPS0">     18.01558784</i>
   <i name="MODEL_ALPHA">      1.00000000</i>
  </separator>
  <separator name="linear response parameters" >
   <i type="logical" name="LEPSILON"> F  </i>
   <i type="logical" name="LRPA"> F  </i>
   <i type="logical" name="LNABLA"> F  </i>
   <i type="logical" name="LVEL"> F  </i>
   <i type="int" name="KINTER">     0</i>
   <i name="CSHIFT">      0.10000000</i>
   <i name="OMEGAMAX">     -1.00000000</i>
   <i name="DEG_THRESHOLD">      0.00200000</i>
   <i name="RTIME">     -0.10000000</i>
   <i name="WPLASMAI">      0.00000000</i>
   <v name="DFIELD">      0.00000000      0.00000000      0.00000000</v>
   <v name="WPLASMA">      0.00000000      0.00000000      0.00000000      0.00000000      0.00000000      0.00000000      0.00000000      0.00000000      0.00000000</v>
  </separator>
  <separator name="orbital magnetization" >
   <i type="logical" name="NUCIND"> F  </i>
   <v name="MAGPOS">      0.00000000      0.00000000      0.00000000</v>
   <i type="logical" name="LNICSALL"> T  </i>
   <i type="logical" name="ORBITALMAG"> F  </i>
   <i type="logical" name="LMAGBLOCH"> F  </i>
   <i type="logical" name="LCHIMAG"> F  </i>
   <i type="logical" name="LGAUGE"> T  </i>
   <i type="int" name="MAGATOM">     0</i>
   <v name="MAGDIPOL">      0.00000000      0.00000000      0.00000000</v>
   <v name="AVECCONST">      0.00000000      0.00000000      0.00000000</v>
  </separator>
  <separator name="response functions" >
   <i type="logical" name="LADDER"> F  </i>
   <i type="logical" name="LRPAFORCE"> F  </i>
   <i type="logical" name="LFXC"> F  </i>
   <i type="logical" name="LHARTREE"> T  </i>
   <i type="int" name="IBSE">     0</i>
   <v type="int" name="KPOINT">    -1     0     0     0</v>
   <i type="logical" name="LTCTE"> F  </i>
   <i type="logical" name="LTETE"> F  </i>
   <i type="logical" name="LTRIPLET"> F  </i>
   <i type="logical" name="LFXCEPS"> F  </i>
   <i type="logical" name="LFXHEG"> F  </i>
   <i type="int" name="NATURALO">     2</i>
   <i type="logical" name="L2ORDER"> F  </i>
   <i type="logical" name="LMP2LT"> F  </i>
   <i type="logical" name="LUSEW"> F  </i>
   <i name="ENCUTGW">     -2.00000000</i>
   <i name="ENCUTGWSOFT">     -2.00000000</i>
   <i name="ENCUTLF">     -1.00000000</i>
   <i type="int" name="LMAXMP2">    -1</i>
   <i name="SCISSOR">      0.00000000</i>
   <i type="int" name="NOMEGA">     0</i>
   <i type="int" name="NOMEGAR">     0</i>
   <i type="int" name="NBANDSGW">    -1</i>
   <i type="int" name="NBANDSO">    -1</i>
   <i type="int" name="NBANDSV">    -1</i>
   <i type="int" name="NELM">     1</i>
   <i type="int" name="NELMHF">     1</i>
   <i type="int" name="DIM">     3</i>
   <i type="int" name="ANTIRES">     0</i>
   <i name="OMEGAMAX">    -30.00000000</i>
   <i name="OMEGAMIN">    -30.00000000</i>
   <i name="OMEGATL">   -200.00000000</i>
   <i type="int" name="OMEGAGRID">   140</i>
   <i name="CSHIFT">     -0.10000000</i>
   <i type="logical" name="SELFENERGY"> F  </i>
   <i type="logical" name="LSPECTRAL"> F  </i>
   <i type="logical" name="LSPECTRALGW"> F  </i>
   <i type="logical" name="LSINGLES"> F  </i>
   <i type="logical" name="LFERMIGW"> F  </i>
   <i type="logical" name="ODDONLYGW"> F  </i>
   <i type="logical" name="EVENONLYGW"> F  </i>
   <i type="int" name="NKREDLFX">     1</i>
   <i type="int" name="NKREDLFY">     1</i>
   <i type="int" name="NKREDLFZ">     1</i>
   <i type="int" name="MAXMEM">  2800</i>
   <i type="int" name="TELESCOPE">     0</i>
   <i type="int" name="TAUPAR">     1</i>
   <i type="int" name="OMEGAPAR">    -1</i>
   <i name="LAMBDA">      1.00000000</i>
  </separator>
  <separator name="External order field" >
   <i name="OFIELD_KAPPA">      0.00000000</i>
   <v name="OFIELD_K">      0.00000000      0.00000000      0.00000000</v>
   <i name="OFIELD_Q6_NEAR">      0.00000000</i>
   <i name="OFIELD_Q6_FAR">      0.00000000</i>
   <i name="OFIELD_A">      0.00000000</i>
  </separator>
 </parameters>
 <atominfo>
  <atoms>      48 </atoms>
  <types>       4 </types>
  <array name="atoms" >
   <dimension dim="1">ion</dimension>
   <field type="string">element</field>
   <field type="int">atomtype</field>
   <set>
    <rc><c>Cs</c><c>   1</c></rc>
    <rc><c>Cs</c><c>   1</c></rc>
    <rc><c>Cs</c><c>   1</c></rc>
    <rc><c>Cs</c><c>   1</c></rc>
    <rc><c>Nb</c><c>   2</c></rc>
    <rc><c>Nb</c><c>   2</c></rc>
    <rc><c>Nb</c><c>   2</c></rc>
    <rc><c>Nb</c><c>   2</c></rc>
    <rc><c>Nb</c><c>   2</c></rc>
    <rc><c>Nb</c><c>   2</c></rc>
    <rc><c>Nb</c><c>   2</c></rc>
    <rc><c>Nb</c><c>   2</c></rc>
    <rc><c>Nb</c><c>   2</c></rc>
    <rc><c>Nb</c><c>   2</c></rc>
    <rc><c>Nb</c><c>   2</c></rc>
    <rc><c>Nb</c><c>   2</c></rc>
    <rc><c>S </c><c>   3</c></rc>
    <rc><c>S </c><c>   3</c></rc>
    <rc><c>S </c><c>   3</c></rc>
    <rc><c>S </c><c>   3</c></rc>
    <rc><c>Br</c><c>   4</c></rc>
    <rc><c>Br</c><c>   4</c></rc>
    <rc><c>Br</c><c>   4</c></rc>
    <rc><c>Br</c><c>   4</c></rc>
    <rc><c>Br</c><c>   4</c></rc>
    <rc><c>Br</c><c>   4</c></rc>
    <rc><c>Br</c><c>   4</c></rc>
    <rc><c>Br</c><c>   4</c></rc>
    <rc><c>Br</c><c>   4</c></rc>
    <rc><c>Br</c><c>   4</c></rc>
    <rc><c>Br</c><c>   4</c></rc>
    <rc><c>Br</c><c>   4</c></rc>
    <rc><c>Br</c><c>   4</c></rc>
    <rc><c>Br</c><c>   4</c></rc>
    <rc><c>Br</c><c>   4</c></rc>
    <rc><c>Br</c><c>   4</c></rc>
    <rc><c>Br</c><c>   4</c></rc>
    <rc><c>Br</c><c>   4</c></rc>
    <rc><c>Br</c><c>   4</c></rc>
    <rc><c>Br</c><c>   4</c></rc>
    <rc><c>Br</c><c>   4</c></rc>
    <rc><c>Br</c><c>   4</c></rc>
    <rc><c>Br</c><c>   4</c></rc>
    <rc><c>Br</c><c>   4</c></rc>
    <rc><c>Br</c><c>   4</c></rc>
    <rc><c>Br</c><c>   4</c></rc>
    <rc><c>Br</c><c>   4</c></rc>
    <rc><c>Br</c><c>   4</c></rc>
   </set>
  </array>
  <array name="atomtypes" >
   <dimension dim="1">type</dimension>
   <field type="int">atomspertype</field>
   <field type="string">element</field>
   <field>mass</field>
   <field>valence</field>
   <field type="string">pseudopotential</field>
   <set>
    <rc><c>   4</c><c>Cs</c><c>    132.90000000</c><c>      9.00000000</c><c>  PAW_PBE Cs_sv 08Apr2002               </c></rc>
    <rc><c>  12</c><c>Nb</c><c>     92.00000000</c><c>     11.00000000</c><c>  PAW_PBE Nb_pv 08Apr2002               </c></rc>
    <rc><c>   4</c><c>S </c><c>     32.06600000</c><c>      6.00000000</c><c>  PAW_PBE S 06Sep2000                   </c></rc>
    <rc><c>  28</c><c>Br</c><c>     79.90400000</c><c>      7.00000000</c><c>  PAW_PBE Br 06Sep2000                  </c></rc>
   </set>
  </array>
 </atominfo>
 <structure name="initialpos" >
  <crystal>
   <varray name="basis" >
    <v>      19.57216263       0.00000000       0.00000000 </v>
    <v>       0.00000000       7.16060400       0.00000000 </v>
    <v>       0.00000000       1.38837625      10.28371310 </v>
   </varray>
   <i name="volume">   1441.24702706 </i>
   <varray name="rec_basis" >
    <v>       0.05109297       0.00000000       0.00000000 </v>
    <v>       0.00000000       0.13965302      -0.01885418 </v>
    <v>       0.00000000       0.00000000       0.09724114 </v>
   </varray>
  </crystal>
  <varray name="positions" >
   <v>       0.40520199       0.76872197       0.88459999 </v>
   <v>       0.09479800       0.26872201       0.88459999 </v>
   <v>       0.90520199       0.73127799       0.11540000 </v>
   <v>       0.59479801       0.23127799       0.11540000 </v>
   <v>       0.82768498       0.13471601       0.57874697 </v>
   <v>       0.67227999       0.03741600       0.57922697 </v>
   <v>       0.17228000       0.46258400       0.42077301 </v>
   <v>       0.67231502       0.63471591       0.57874697 </v>
   <v>       0.33012598       0.21310298       0.17458900 </v>
   <v>       0.66987399       0.78689696       0.82541108 </v>
   <v>       0.32768500       0.36528399       0.42125301 </v>
   <v>       0.16987399       0.71310305       0.17458900 </v>
   <v>       0.17231500       0.86528399       0.42125301 </v>
   <v>       0.83012596       0.28689700       0.82541108 </v>
   <v>       0.82771996       0.53741600       0.57922697 </v>
   <v>       0.32771999       0.96258404       0.42077301 </v>
   <v>       0.76231498       0.81748499       0.67325999 </v>
   <v>       0.26231500       0.68251504       0.32674001 </v>
   <v>       0.73768502       0.31748499       0.67325999 </v>
   <v>       0.23768500       0.18251499       0.32674001 </v>
   <v>       0.75008303       0.01093099       0.95642505 </v>
   <v>       0.41396401       0.13764700       0.55523301 </v>
   <v>       0.74991697       0.51093096       0.95642505 </v>
   <v>       0.07943200       0.94937701       0.24077501 </v>
   <v>       0.59857101       0.74086996       0.05725900 </v>
   <v>       0.42013901       0.94979104       0.23899301 </v>
   <v>       0.90142904       0.24087000       0.05725900 </v>
   <v>       0.75017001       0.12530800       0.36914400 </v>
   <v>       0.25008301       0.48906903       0.04357500 </v>
   <v>       0.40142899       0.25912998       0.94274097 </v>
   <v>       0.08603600       0.63764695       0.55523301 </v>
   <v>       0.57943200       0.55062302       0.75922504 </v>
   <v>       0.24991699       0.98906899       0.04357500 </v>
   <v>       0.92056795       0.05062298       0.75922504 </v>
   <v>       0.58603604       0.86235308       0.44476701 </v>
   <v>       0.91396401       0.36235298       0.44476701 </v>
   <v>       0.09857100       0.75912994       0.94274097 </v>
   <v>       0.24982999       0.87469203       0.63085600 </v>
   <v>       0.92013897       0.55020899       0.76100701 </v>
   <v>       0.10100399       0.14254899       0.53351202 </v>
   <v>       0.57986099       0.05020900       0.76100701 </v>
   <v>       0.74982999       0.62530800       0.36914400 </v>
   <v>       0.42056800       0.44937697       0.24077501 </v>
   <v>       0.89899595       0.85745102       0.46648801 </v>
   <v>       0.60100400       0.35745098       0.46648801 </v>
   <v>       0.25016998       0.37469200       0.63085600 </v>
   <v>       0.39899600       0.64254901       0.53351202 </v>
   <v>       0.07986100       0.44979101       0.23899301 </v>
  </varray>
 </structure>
 <calculation>
  <scstep>
   <time name="dav">    2.76    2.76</time>
   <time name="total">    3.13    3.19</time>
   <energy>
    <i name="alphaZ">   1398.37695978 </i>
    <i name="ewald"> -15345.76116035 </i>
    <i name="hartreedc"> -10099.12453972 </i>
    <i name="XCdc">    682.99281612 </i>
    <i name="pawpsdc">  20859.21344202 </i>
    <i name="pawaedc"> -20454.16513889 </i>
    <i name="eentropy">      0.02464041 </i>
    <i name="bandstr">  -3459.95659853 </i>
    <i name="atom">  26167.23066318 </i>
    <i name="e_fr_energy">   -251.16891597 </i>
    <i name="e_wo_entrp">   -251.19355638 </i>
    <i name="e_0_energy">   -251.17712944 </i>
   </energy>
  </scstep>
  <scstep>
   <time name="dav">    2.76    2.77</time>
   <time name="total">    3.12    3.13</time>
   <energy>
    <i name="e_fr_energy">   -238.96124971 </i>
    <i name="e_wo_entrp">   -238.98835704 </i>
    <i name="e_0_energy">   -238.97028549 </i>
   </energy>
  </scstep>
  <scstep>
   <time name="dav">    2.25    2.26</time>
   <time name="total">    2.61    2.62</time>
   <energy>
    <i name="e_fr_energy">   -237.67135675 </i>
    <i name="e_wo_entrp">   -237.72205885 </i>
    <i name="e_0_energy">   -237.68825745 </i>
   </energy>
  </scstep>
  <scstep>
   <time name="dav">    2.57    2.57</time>
   <time name="total">    2.92    2.93</time>
   <energy>
    <i name="e_fr_energy">   -237.81427536 </i>
    <i name="e_wo_entrp">   -237.86873584 </i>
    <i name="e_0_energy">   -237.83242886 </i>
   </energy>
  </scstep>
  <scstep>
   <time name="dav">    2.71    2.71</time>
   <time name="total">    3.07    3.07</time>
   <energy>
    <i name="e_fr_energy">   -237.77658291 </i>
    <i name="e_wo_entrp">   -237.82986374 </i>
    <i name="e_0_energy">   -237.79434318 </i>
   </energy>
  </scstep>
  <scstep>
   <time name="dav">    2.80    2.82</time>
   <time name="total">    3.16    3.18</time>
   <energy>
    <i name="e_fr_energy">   -237.76261816 </i>
    <i name="e_wo_entrp">   -237.81504553 </i>
    <i name="e_0_energy">   -237.78009395 </i>
   </energy>
  </scstep>
  <scstep>
   <time name="dav">    2.66    2.66</time>
   <time name="total">    3.01    3.02</time>
   <energy>
    <i name="e_fr_energy">   -237.75357992 </i>
    <i name="e_wo_entrp">   -237.80558959 </i>
    <i name="e_0_energy">   -237.77091648 </i>
   </energy>
  </scstep>
  <scstep>
   <time name="dav">    2.56    2.56</time>
   <time name="total">    2.92    2.92</time>
   <energy>
    <i name="e_fr_energy">   -237.75668111 </i>
    <i name="e_wo_entrp">   -237.80883784 </i>
    <i name="e_0_energy">   -237.77406669 </i>
   </energy>
  </scstep>
  <scstep>
   <time name="dav">    2.53    2.54</time>
   <time name="total">    2.89    2.90</time>
   <energy>
    <i name="e_fr_energy">   -237.75576233 </i>
    <i name="e_wo_entrp">   -237.80776040 </i>
    <i name="e_0_energy">   -237.77309502 </i>
   </energy>
  </scstep>
  <scstep>
   <time name="dav">    2.32    2.32</time>
   <time name="total">    2.68    2.68</time>
   <energy>
    <i name="e_fr_energy">   -237.75625967 </i>
    <i name="e_wo_entrp">   -237.80822740 </i>
    <i name="e_0_energy">   -237.77358225 </i>
   </energy>
  </scstep>
  <scstep>
   <time name="dav">    1.82    1.83</time>
   <time name="total">    1.99    2.00</time>
   <energy>
    <i name="alphaZ">   1398.37695978 </i>
    <i name="ewald"> -15345.76116035 </i>
    <i name="hartreedc"> -10034.89218542 </i>
    <i name="XCdc">    686.36708286 </i>
    <i name="pawpsdc">  31630.60368125 </i>
    <i name="pawaedc"> -31261.26153414 </i>
    <i name="eentropy">      0.05203504 </i>
    <i name="bandstr">  -3478.47187472 </i>
    <i name="atom">  26167.23066318 </i>
    <i name="e_fr_energy">   -237.75633251 </i>
    <i name="e_wo_entrp">   -237.80836755 </i>
    <i name="e_0_energy">   -237.77367753 </i>
   </energy>
  </scstep>
  <structure>
   <crystal>
    <varray name="basis" >
     <v>      19.57216263       0.00000000       0.00000000 </v>
     <v>       0.00000000       7.16060400       0.00000000 </v>
     <v>       0.00000000       1.38837625      10.28371310 </v>
    </varray>
    <i name="volume">   1441.24702706 </i>
    <varray name="rec_basis" >
     <v>       0.05109297       0.00000000       0.00000000 </v>
     <v>       0.00000000       0.13965302      -0.01885418 </v>
     <v>       0.00000000       0.00000000       0.09724114 </v>
    </varray>
   </crystal>
   <varray name="positions" >
    <v>       0.40520199       0.76872197       0.88459999 </v>
    <v>       0.09479800       0.26872201       0.88459999 </v>
    <v>       0.90520199       0.73127799       0.11540000 </v>
    <v>       0.59479801       0.23127799       0.11540000 </v>
    <v>       0.82768498       0.13471601       0.57874697 </v>
    <v>       0.67227999       0.03741600       0.57922697 </v>
    <v>       0.17228000       0.46258400       0.42077301 </v>
    <v>       0.67231502       0.63471591       0.57874697 </v>
    <v>       0.33012598       0.21310298       0.17458900 </v>
    <v>       0.66987399       0.78689696       0.82541108 </v>
    <v>       0.32768500       0.36528399       0.42125301 </v>
    <v>       0.16987399       0.71310305       0.17458900 </v>
    <v>       0.17231500       0.86528399       0.42125301 </v>
    <v>       0.83012596       0.28689700       0.82541108 </v>
    <v>       0.82771996       0.53741600       0.57922697 </v>
    <v>       0.32771999       0.96258404       0.42077301 </v>
    <v>       0.76231498       0.81748499       0.67325999 </v>
    <v>       0.26231500       0.68251504       0.32674001 </v>
    <v>       0.73768502       0.31748499       0.67325999 </v>
    <v>       0.23768500       0.18251499       0.32674001 </v>
    <v>       0.75008303       0.01093099       0.95642505 </v>
    <v>       0.41396401       0.13764700       0.55523301 </v>
    <v>       0.74991697       0.51093096       0.95642505 </v>
    <v>       0.07943200       0.94937701       0.24077501 </v>
    <v>       0.59857101       0.74086996       0.05725900 </v>
    <v>       0.42013901       0.94979104       0.23899301 </v>
    <v>       0.90142904       0.24087000       0.05725900 </v>
    <v>       0.75017001       0.12530800       0.36914400 </v>
    <v>       0.25008301       0.48906903       0.04357500 </v>
    <v>       0.40142899       0.25912998       0.94274097 </v>
    <v>       0.08603600       0.63764695       0.55523301 </v>
    <v>       0.57943200       0.55062302       0.75922504 </v>
    <v>       0.24991699       0.98906899       0.04357500 </v>
    <v>       0.92056795       0.05062298       0.75922504 </v>
    <v>       0.58603604       0.86235308       0.44476701 </v>
    <v>       0.91396401       0.36235298       0.44476701 </v>
    <v>       0.09857100       0.75912994       0.94274097 </v>
    <v>       0.24982999       0.87469203       0.63085600 </v>
    <v>       0.92013897       0.55020899       0.76100701 </v>
    <v>       0.10100399       0.14254899       0.53351202 </v>
    <v>       0.57986099       0.05020900       0.76100701 </v>
    <v>       0.74982999       0.62530800       0.36914400 </v>
    <v>       0.42056800       0.44937697       0.24077501 </v>
    <v>       0.89899595       0.85745102       0.46648801 </v>
    <v>       0.60100400       0.35745098       0.46648801 </v>
    <v>       0.25016998       0.37469200       0.63085600 </v>
    <v>       0.39899600       0.64254901       0.53351202 </v>
    <v>       0.07986100       0.44979101       0.23899301 </v>
   </varray>
  </structure>
  <varray name="forces" >
   <v>       0.00666144      -0.01806790      -0.27795542 </v>
   <v>      -0.00666144      -0.01806790      -0.27795542 </v>
   <v>       0.00666144       0.01806790       0.27795542 </v>
   <v>      -0.00666144       0.01806790       0.27795542 </v>
   <v>       0.35209011      -0.53121075       0.01428322 </v>
   <v>      -0.30179761       0.54022482       0.03669770 </v>
   <v>      -0.30179761      -0.54022482      -0.03669770 </v>
   <v>      -0.35209011      -0.53121075       0.01428322 </v>
   <v>       0.16532782       0.02609001       0.13571919 </v>
   <v>      -0.16532782      -0.02609001      -0.13571919 </v>
   <v>       0.35209011       0.53121075      -0.01428322 </v>
   <v>      -0.16532782       0.02609001       0.13571919 </v>
   <v>      -0.35209011       0.53121075      -0.01428322 </v>
   <v>       0.16532782      -0.02609001      -0.13571919 </v>
   <v>       0.30179761       0.54022482       0.03669770 </v>
   <v>       0.30179761      -0.54022482      -0.03669770 </v>
   <v>      -0.60769137      -0.00379236       0.20747192 </v>
   <v>      -0.60769137       0.00379236      -0.20747192 </v>
   <v>       0.60769137      -0.00379236       0.20747192 </v>
   <v>       0.60769137       0.00379236      -0.20747192 </v>
   <v>       0.00823706       0.00685258      -0.17259810 </v>
   <v>      -0.27881170      -0.01361310      -0.18311358 </v>
   <v>      -0.00823706       0.00685258      -0.17259810 </v>
   <v>       0.17775334       0.01523142       0.08457798 </v>
   <v>       0.05266532       0.00163957      -0.33020728 </v>
   <v>      -0.17587224      -0.01563524       0.08900486 </v>
   <v>      -0.05266532       0.00163957      -0.33020728 </v>
   <v>      -0.00733765       0.00216528       0.18207061 </v>
   <v>       0.00823706      -0.00685258       0.17259810 </v>
   <v>      -0.05266532      -0.00163957       0.33020728 </v>
   <v>       0.27881170      -0.01361310      -0.18311358 </v>
   <v>       0.17775334      -0.01523142      -0.08457798 </v>
   <v>      -0.00823706      -0.00685258       0.17259810 </v>
   <v>      -0.17775334      -0.01523142      -0.08457798 </v>
   <v>       0.27881170       0.01361310       0.18311358 </v>
   <v>      -0.27881170       0.01361310       0.18311358 </v>
   <v>       0.05266532      -0.00163957       0.33020728 </v>
   <v>       0.00733765      -0.00216528      -0.18207061 </v>
   <v>      -0.17587224       0.01563524      -0.08900486 </v>
   <v>      -0.01956111       0.02681186       0.09074068 </v>
   <v>       0.17587224       0.01563524      -0.08900486 </v>
   <v>       0.00733765       0.00216528       0.18207061 </v>
   <v>      -0.17775334       0.01523142       0.08457798 </v>
   <v>       0.01956111      -0.02681186      -0.09074068 </v>
   <v>      -0.01956111      -0.02681186      -0.09074068 </v>
   <v>      -0.00733765      -0.00216528      -0.18207061 </v>
   <v>       0.01956111       0.02681186       0.09074068 </v>
   <v>       0.17587224      -0.01563524       0.08900486 </v>
  </varray>
  <varray name="stress" >
   <v>      -3.35040745       0.00000000       0.00000000 </v>
   <v>       0.00000000      36.57496204      -0.54689736 </v>
   <v>       0.00000000      -0.54689748      -3.98155468 </v>
  </varray>
  <energy>
   <i name="e_fr_energy">   -237.75633251 </i>
   <i name="e_wo_entrp">   -237.77367753 </i>
   <i name="e_0_energy">      0.05203504 </i>
  </energy>
  <time name="totalsc">   39.58   44.35</time>
  <eigenvalues>
   <array>
    <dimension dim="1">band</dimension>
    <dimension dim="2">kpoint</dimension>
    <dimension dim="3">spin</dimension>
    <field>eigene</field>
    <field>occ</field>
    <set>
     <set comment="spin 1">
      <set comment="kpoint 1">
       <r>  -29.6999    1.0000 </r>
       <r>  -29.6999    1.0000 </r>
       <r>  -29.6754    1.0000 </r>
       <r>  -29.6753    1.0000 </r>
       <r>  -29.5582    1.0000 </r>
       <r>  -29.5581    1.0000 </r>
       <r>  -29.5509    1.0000 </r>
       <r>  -29.5509    1.0000 </r>
       <r>  -29.5343    1.0000 </r>
       <r>  -29.5343    1.0000 </r>
       <r>  -29.5214    1.0000 </r>
       <r>  -29.5214    1.0000 </r>
       <r>  -29.4651    1.0000 </r>
       <r>  -29.4651    1.0000 </r>
       <r>  -29.4539    1.0000 </r>
       <r>  -29.4539    1.0000 </r>
       <r>  -29.3714    1.0000 </r>
       <r>  -29.3713    1.0000 </r>
       <r>  -29.3647    1.0000 </r>
       <r>  -29.3647    1.0000 </r>
       <r>  -29.3361    1.0000 </r>
       <r>  -29.3360    1.0000 </r>
       <r>  -29.2860    1.0000 </r>
       <r>  -29.2860    1.0000 </r>
       <r>  -29.2564    1.0000 </r>
       <r>  -29.2563    1.0000 </r>
       <r>  -29.2539    1.0000 </r>
       <r>  -29.2539    1.0000 </r>
       <r>  -29.0879    1.0000 </r>
       <r>  -29.0879    1.0000 </r>
       <r>  -29.0788    1.0000 </r>
       <r>  -29.0788    1.0000 </r>
       <r>  -29.0270    1.0000 </r>
       <r>  -29.0270    1.0000 </r>
       <r>  -29.0220    1.0000 </r>
       <r>  -29.0220    1.0000 </r>
       <r>  -19.3215    1.0000 </r>
       <r>  -19.3213    1.0000 </r>
       <r>  -19.3197    1.0000 </r>
       <r>  -19.3194    1.0000 </r>
       <r>  -13.7390    1.0000 </r>
       <r>  -13.6953    1.0000 </r>
       <r>  -13.6417    1.0000 </r>
       <r>  -13.5950    1.0000 </r>
       <r>  -13.4063    1.0000 </r>
       <r>  -13.3955    1.0000 </r>
       <r>  -13.3631    1.0000 </r>
       <r>  -13.3599    1.0000 </r>
       <r>  -13.2952    1.0000 </r>
       <r>  -13.2898    1.0000 </r>
       <r>  -13.2787    1.0000 </r>
       <r>  -13.2745    1.0000 </r>
       <r>  -13.1743    1.0000 </r>
       <r>  -13.1648    1.0000 </r>
       <r>  -13.0957    1.0000 </r>
       <r>  -13.0947    1.0000 </r>
       <r>  -12.9073    1.0000 </r>
       <r>  -12.9072    1.0000 </r>
       <r>  -12.7997    1.0000 </r>
       <r>  -12.7996    1.0000 </r>
       <r>  -12.5132    1.0000 </r>
       <r>  -12.5108    1.0000 </r>
       <r>  -12.5075    1.0000 </r>
       <r>  -12.5055    1.0000 </r>
       <r>  -11.9308    1.0000 </r>
       <r>  -11.9291    1.0000 </r>
       <r>  -11.9035    1.0000 </r>
       <r>  -11.9033    1.0000 </r>
       <r>  -11.5378    1.0000 </r>
       <r>  -11.5335    1.0000 </r>
       <r>  -11.3427    1.0000 </r>
       <r>  -11.3426    1.0000 </r>
       <r>   -6.2115    1.0000 </r>
       <r>   -6.2045    1.0000 </r>
       <r>   -6.1988    1.0000 </r>
       <r>   -6.1982    1.0000 </r>
       <r>   -6.1865    1.0000 </r>
       <r>   -6.1797    1.0000 </r>
       <r>   -6.1761    1.0000 </r>
       <r>   -6.1740    1.0000 </r>
       <r>   -6.1686    1.0000 </r>
       <r>   -6.1637    1.0000 </r>
       <r>   -6.1536    1.0000 </r>
       <r>   -6.1529    1.0000 </r>
       <r>   -3.9894    1.0000 </r>
       <r>   -3.9873    1.0000 </r>
       <r>   -3.7463    1.0000 </r>
       <r>   -3.6282    1.0000 </r>
       <r>   -3.5622    1.0000 </r>
       <r>   -3.5429    1.0000 </r>
       <r>   -3.4589    1.0000 </r>
       <r>   -3.4534    1.0000 </r>
       <r>   -3.1906    1.0000 </r>
       <r>   -3.1554    1.0000 </r>
       <r>   -3.0444    1.0000 </r>
       <r>   -3.0372    1.0000 </r>
       <r>   -3.0299    1.0000 </r>
       <r>   -2.9766    1.0000 </r>
       <r>   -2.9412    1.0000 </r>
       <r>   -2.9176    1.0000 </r>
       <r>   -2.7190    1.0000 </r>
       <r>   -2.6166    1.0000 </r>
       <r>   -2.5902    1.0000 </r>
       <r>   -2.5800    1.0000 </r>
       <r>   -2.5661    1.0000 </r>
       <r>   -2.5273    1.0000 </r>
       <r>   -2.5183    1.0000 </r>
       <r>   -2.4925    1.0000 </r>
       <r>   -2.4444    1.0000 </r>
       <r>   -2.4334    1.0000 </r>
       <r>   -2.4116    1.0000 </r>
       <r>   -2.4111    1.0000 </r>
       <r>   -2.2794    1.0000 </r>
       <r>   -2.2615    1.0000 </r>
       <r>   -2.1702    1.0000 </r>
       <r>   -2.1606    1.0000 </r>
       <r>   -2.1486    1.0000 </r>
       <r>   -2.1393    1.0000 </r>
       <r>   -2.0973    1.0000 </r>
       <r>   -2.0934    1.0000 </r>
       <r>   -2.0276    1.0000 </r>
       <r>   -1.8717    1.0000 </r>
       <r>   -1.8499    1.0000 </r>
       <r>   -1.8234    1.0000 </r>
       <r>   -1.7798    1.0000 </r>
       <r>   -1.7275    1.0000 </r>
       <r>   -1.7168    1.0000 </r>
       <r>   -1.7151    1.0000 </r>
       <r>   -1.6918    1.0000 </r>
       <r>   -1.6388    1.0000 </r>
       <r>   -1.5767    1.0000 </r>
       <r>   -1.5732    1.0000 </r>
       <r>   -1.4989    1.0000 </r>
       <r>   -1.4782    1.0000 </r>
       <r>   -1.4180    1.0000 </r>
       <r>   -1.3501    1.0000 </r>
       <r>   -1.2045    1.0000 </r>
       <r>   -1.1712    1.0000 </r>
       <r>   -1.1534    1.0000 </r>
       <r>   -1.1213    1.0000 </r>
       <r>   -1.0931    1.0000 </r>
       <r>   -1.0774    1.0000 </r>
       <r>   -1.0314    1.0000 </r>
       <r>   -0.9600    1.0000 </r>
       <r>   -0.9299    1.0000 </r>
       <r>   -0.9246    1.0000 </r>
       <r>   -0.8119    1.0000 </r>
       <r>   -0.8069    1.0000 </r>
       <r>   -0.6482    1.0000 </r>
       <r>   -0.5863    1.0000 </r>
       <r>   -0.5710    1.0000 </r>
       <r>   -0.5638    1.0000 </r>
       <r>   -0.5412    1.0000 </r>
       <r>   -0.5076    1.0000 </r>
       <r>   -0.4916    1.0000 </r>
       <r>   -0.4640    1.0000 </r>
       <r>   -0.4251    1.0000 </r>
       <r>   -0.4208    1.0000 </r>
       <r>   -0.3570    1.0000 </r>
       <r>   -0.2917    1.0000 </r>
       <r>   -0.2666    1.0000 </r>
       <r>   -0.2534    1.0000 </r>
       <r>   -0.1799    1.0000 </r>
       <r>   -0.1773    1.0000 </r>
       <r>   -0.0204    1.0000 </r>
       <r>    0.0018    1.0000 </r>
       <r>    0.1489    1.0000 </r>
       <r>    0.1569    1.0000 </r>
       <r>    0.1576    1.0000 </r>
       <r>    0.1781    1.0000 </r>
       <r>    0.2038    1.0000 </r>
       <r>    0.3287    1.0000 </r>
       <r>    0.3431    1.0000 </r>
       <r>    0.3669    1.0000 </r>
       <r>    0.4039    1.0000 </r>
       <r>    0.4103    1.0000 </r>
       <r>    0.5640    1.0000 </r>
       <r>    0.5741    1.0000 </r>
       <r>    0.5975    1.0000 </r>
       <r>    0.6556    1.0000 </r>
       <r>    0.7400    1.0000 </r>
       <r>    0.8224    1.0000 </r>
       <r>    1.0964    1.0000 </r>
       <r>    1.1192    1.0000 </r>
       <r>    1.1804    1.0000 </r>
       <r>    1.2112    1.0000 </r>
       <r>    1.4755    1.0000 </r>
       <r>    1.5061    1.0000 </r>
       <r>    1.6055    1.0007 </r>
       <r>    1.6649    1.0024 </r>
       <r>    1.8295    1.0276 </r>
       <r>    1.8519    1.0321 </r>
       <r>    1.9646    0.9965 </r>
       <r>    2.0002    0.9406 </r>
       <r>    2.8837   -0.0000 </r>
       <r>    2.8905   -0.0000 </r>
       <r>    2.9541   -0.0000 </r>
       <r>    2.9743   -0.0000 </r>
       <r>    2.9821   -0.0000 </r>
       <r>    2.9985   -0.0000 </r>
       <r>    3.5262   -0.0000 </r>
       <r>    3.5265   -0.0000 </r>
       <r>    3.5703   -0.0000 </r>
       <r>    3.5747   -0.0000 </r>
       <r>    3.8698   -0.0000 </r>
       <r>    3.8755   -0.0000 </r>
       <r>    4.0805   -0.0000 </r>
       <r>    4.2304   -0.0000 </r>
       <r>    4.2390   -0.0000 </r>
       <r>    4.2536   -0.0000 </r>
       <r>    4.2914   -0.0000 </r>
       <r>    4.3413   -0.0000 </r>
       <r>    4.3418   -0.0000 </r>
       <r>    4.4063   -0.0000 </r>
       <r>    4.4159   -0.0000 </r>
       <r>    4.4392   -0.0000 </r>
       <r>    4.4506   -0.0000 </r>
       <r>    4.4915   -0.0000 </r>
       <r>    4.5441   -0.0000 </r>
       <r>    4.5462   -0.0000 </r>
       <r>    4.7117   -0.0000 </r>
       <r>    4.7377   -0.0000 </r>
       <r>    4.7555   -0.0000 </r>
       <r>    4.7610   -0.0000 </r>
       <r>    4.7861   -0.0000 </r>
       <r>    4.8003   -0.0000 </r>
       <r>    4.8080   -0.0000 </r>
       <r>    4.8753   -0.0000 </r>
       <r>    4.9269   -0.0000 </r>
       <r>    5.0264   -0.0000 </r>
       <r>    5.0584   -0.0000 </r>
       <r>    5.1206   -0.0000 </r>
      </set>
     </set>
    </set>
   </array>
  </eigenvalues>
  <separator name="orbital magnetization" >
   <v name="MAGDIPOLOUT">      0.00000000      0.00000000      0.00000000</v>
  </separator>
  <dos>
   <i name="efermi">      2.12993716 </i>
   <total>
    <array>
     <dimension dim="1">gridpoints</dimension>
     <dimension dim="2">spin</dimension>
     <field>energy</field>
     <field>total</field>
     <field>integrated</field>
     <set>
      <set comment="spin 1">
       <r>   -31.6999     0.0000     0.0000 </r>
       <r>   -31.5705     0.0000     0.0000 </r>
       <r>   -31.4411     0.0000     0.0000 </r>
       <r>   -31.3117    -0.0000    -0.0000 </r>
       <r>   -31.1823    -0.0000    -0.0000 </r>
       <r>   -31.0529    -0.0000    -0.0000 </r>
       <r>   -30.9235    -0.0000    -0.0000 </r>
       <r>   -30.7941    -0.0000    -0.0000 </r>
       <r>   -30.6647    -0.0000    -0.0000 </r>
       <r>   -30.5353    -0.0000    -0.0000 </r>
       <r>   -30.4059    -0.0002    -0.0000 </r>
       <r>   -30.2765    -0.0083    -0.0011 </r>
       <r>   -30.1471    -0.1755    -0.0238 </r>
       <r>   -30.0177    -1.3698    -0.2011 </r>
       <r>   -29.8883    -2.4345    -0.5161 </r>
       <r>   -29.7589    11.2120     0.9348 </r>
       <r>   -29.6295    54.2540     7.9553 </r>
       <r>   -29.5001   104.4787    21.4750 </r>
       <r>   -29.3707   122.0633    37.2702 </r>
       <r>   -29.2413   103.6149    50.6782 </r>
       <r>   -29.1119    77.8978    60.7583 </r>
       <r>   -28.9825    62.9308    68.9016 </r>
       <r>   -28.8530    26.9975    72.3951 </r>
       <r>   -28.7236    -0.4130    72.3417 </r>
       <r>   -28.5942    -2.2533    72.0501 </r>
       <r>   -28.4648    -0.3665    72.0027 </r>
       <r>   -28.3354    -0.0201    72.0001 </r>
       <r>   -28.2060    -0.0004    72.0000 </r>
       <r>   -28.0766    -0.0000    72.0000 </r>
       <r>   -27.9472    -0.0000    72.0000 </r>
       <r>   -27.8178    -0.0000    72.0000 </r>
       <r>   -27.6884    -0.0000    72.0000 </r>
       <r>   -27.5590     0.0000    72.0000 </r>
       <r>   -27.4296     0.0000    72.0000 </r>
       <r>   -27.3002     0.0000    72.0000 </r>
       <r>   -27.1708     0.0000    72.0000 </r>
       <r>   -27.0414     0.0000    72.0000 </r>
       <r>   -26.9120     0.0000    72.0000 </r>
       <r>   -26.7826     0.0000    72.0000 </r>
       <r>   -26.6532     0.0000    72.0000 </r>
       <r>   -26.5238     0.0000    72.0000 </r>
       <r>   -26.3944     0.0000    72.0000 </r>
       <r>   -26.2650     0.0000    72.0000 </r>
       <r>   -26.1356     0.0000    72.0000 </r>
       <r>   -26.0062     0.0000    72.0000 </r>
       <r>   -25.8768     0.0000    72.0000 </r>
       <r>   -25.7474     0.0000    72.0000 </r>
       <r>   -25.6180     0.0000    72.0000 </r>
       <r>   -25.4886     0.0000    72.0000 </r>
       <r>   -25.3592     0.0000    72.0000 </r>
       <r>   -25.2298     0.0000    72.0000 </r>
       <r>   -25.1004     0.0000    72.0000 </r>
       <r>   -24.9710     0.0000    72.0000 </r>
       <r>   -24.8416     0.0000    72.0000 </r>
       <r>   -24.7122     0.0000    72.0000 </r>
       <r>   -24.5828     0.0000    72.0000 </r>
       <r>   -24.4534     0.0000    72.0000 </r>
       <r>   -24.3240     0.0000    72.0000 </r>
       <r>   -24.1946     0.0000    72.0000 </r>
       <r>   -24.0652     0.0000    72.0000 </r>
       <r>   -23.9358     0.0000    72.0000 </r>
       <r>   -23.8064     0.0000    72.0000 </r>
       <r>   -23.6770     0.0000    72.0000 </r>
       <r>   -23.5476     0.0000    72.0000 </r>
       <r>   -23.4182     0.0000    72.0000 </r>
       <r>   -23.2888     0.0000    72.0000 </r>
       <r>   -23.1594     0.0000    72.0000 </r>
       <r>   -23.0300     0.0000    72.0000 </r>
       <r>   -22.9006     0.0000    72.0000 </r>
       <r>   -22.7712     0.0000    72.0000 </r>
       <r>   -22.6418     0.0000    72.0000 </r>
       <r>   -22.5124     0.0000    72.0000 </r>
       <r>   -22.3830     0.0000    72.0000 </r>
       <r>   -22.2536     0.0000    72.0000 </r>
       <r>   -22.1242     0.0000    72.0000 </r>
       <r>   -21.9948     0.0000    72.0000 </r>
       <r>   -21.8654     0.0000    72.0000 </r>
       <r>   -21.7360     0.0000    72.0000 </r>
       <r>   -21.6066     0.0000    72.0000 </r>
       <r>   -21.4772     0.0000    72.0000 </r>
       <r>   -21.3478     0.0000    72.0000 </r>
       <r>   -21.2184     0.0000    72.0000 </r>
       <r>   -21.0890     0.0000    72.0000 </r>
       <r>   -20.9596    -0.0000    72.0000 </r>
       <r>   -20.8302    -0.0000    72.0000 </r>
       <r>   -20.7007    -0.0000    72.0000 </r>
       <r>   -20.5713    -0.0000    72.0000 </r>
       <r>   -20.4419    -0.0000    72.0000 </r>
       <r>   -20.3125    -0.0000    72.0000 </r>
       <r>   -20.1831    -0.0000    72.0000 </r>
       <r>   -20.0537    -0.0001    72.0000 </r>
       <r>   -19.9243    -0.0051    71.9993 </r>
       <r>   -19.7949    -0.1190    71.9839 </r>
       <r>   -19.6655    -0.9549    71.8604 </r>
       <r>   -19.5361    -0.8658    71.7483 </r>
       <r>   -19.4067    12.4486    73.3592 </r>
       <r>   -19.2773    31.4038    77.4229 </r>
       <r>   -19.1479    20.1861    80.0350 </r>
       <r>   -19.0185     1.4123    80.2177 </r>
       <r>   -18.8891    -1.3942    80.0373 </r>
       <r>   -18.7597    -0.2719    80.0021 </r>
       <r>   -18.6303    -0.0162    80.0000 </r>
       <r>   -18.5009    -0.0004    80.0000 </r>
       <r>   -18.3715    -0.0000    80.0000 </r>
       <r>   -18.2421    -0.0000    80.0000 </r>
       <r>   -18.1127    -0.0000    80.0000 </r>
       <r>   -17.9833    -0.0000    80.0000 </r>
       <r>   -17.8539     0.0000    80.0000 </r>
       <r>   -17.7245     0.0000    80.0000 </r>
       <r>   -17.5951     0.0000    80.0000 </r>
       <r>   -17.4657     0.0000    80.0000 </r>
       <r>   -17.3363     0.0000    80.0000 </r>
       <r>   -17.2069     0.0000    80.0000 </r>
       <r>   -17.0775     0.0000    80.0000 </r>
       <r>   -16.9481     0.0000    80.0000 </r>
       <r>   -16.8187     0.0000    80.0000 </r>
       <r>   -16.6893     0.0000    80.0000 </r>
       <r>   -16.5599     0.0000    80.0000 </r>
       <r>   -16.4305     0.0000    80.0000 </r>
       <r>   -16.3011     0.0000    80.0000 </r>
       <r>   -16.1717     0.0000    80.0000 </r>
       <r>   -16.0423     0.0000    80.0000 </r>
       <r>   -15.9129     0.0000    80.0000 </r>
       <r>   -15.7835     0.0000    80.0000 </r>
       <r>   -15.6541     0.0000    80.0000 </r>
       <r>   -15.5247     0.0000    80.0000 </r>
       <r>   -15.3953    -0.0000    80.0000 </r>
       <r>   -15.2659    -0.0000    80.0000 </r>
       <r>   -15.1365    -0.0000    80.0000 </r>
       <r>   -15.0071    -0.0000    80.0000 </r>
       <r>   -14.8777    -0.0000    80.0000 </r>
       <r>   -14.7483    -0.0000    80.0000 </r>
       <r>   -14.6189    -0.0000    80.0000 </r>
       <r>   -14.4895    -0.0000    80.0000 </r>
       <r>   -14.3601    -0.0010    79.9999 </r>
       <r>   -14.2307    -0.0308    79.9959 </r>
       <r>   -14.1013    -0.3543    79.9500 </r>
       <r>   -13.9719    -1.1588    79.8001 </r>
       <r>   -13.8425     2.7085    80.1506 </r>
       <r>   -13.7131    17.9048    82.4675 </r>
       <r>   -13.5837    26.4715    85.8929 </r>
       <r>   -13.4543    28.9109    89.6341 </r>
       <r>   -13.3249    53.2098    96.5195 </r>
       <r>   -13.1955    63.6516   104.7561 </r>
       <r>   -13.0661    43.3224   110.3621 </r>
       <r>   -12.9367    27.4019   113.9079 </r>
       <r>   -12.8073    26.3799   117.3215 </r>
       <r>   -12.6779    19.6391   119.8629 </r>
       <r>   -12.5484    23.4892   122.9024 </r>
       <r>   -12.4190    29.9281   126.7752 </r>
       <r>   -12.2896    10.7495   128.1662 </r>
       <r>   -12.1602    -2.4041   127.8551 </r>
       <r>   -12.0308     7.1096   128.7750 </r>
       <r>   -11.9014    28.4428   132.4556 </r>
       <r>   -11.7720    24.0261   135.5646 </r>
       <r>   -11.6426     7.9622   136.5949 </r>
       <r>   -11.5132    14.1736   138.4290 </r>
       <r>   -11.3838    21.7131   141.2387 </r>
       <r>   -11.2544    17.2464   143.4704 </r>
       <r>   -11.1250     5.2897   144.1549 </r>
       <r>   -10.9956    -0.6563   144.0700 </r>
       <r>   -10.8662    -0.4809   144.0078 </r>
       <r>   -10.7368    -0.0575   144.0003 </r>
       <r>   -10.6074    -0.0024   144.0000 </r>
       <r>   -10.4780    -0.0000   144.0000 </r>
       <r>   -10.3486    -0.0000   144.0000 </r>
       <r>   -10.2192    -0.0000   144.0000 </r>
       <r>   -10.0898    -0.0000   144.0000 </r>
       <r>    -9.9604     0.0000   144.0000 </r>
       <r>    -9.8310     0.0000   144.0000 </r>
       <r>    -9.7016     0.0000   144.0000 </r>
       <r>    -9.5722     0.0000   144.0000 </r>
       <r>    -9.4428     0.0000   144.0000 </r>
       <r>    -9.3134     0.0000   144.0000 </r>
       <r>    -9.1840     0.0000   144.0000 </r>
       <r>    -9.0546     0.0000   144.0000 </r>
       <r>    -8.9252     0.0000   144.0000 </r>
       <r>    -8.7958     0.0000   144.0000 </r>
       <r>    -8.6664     0.0000   144.0000 </r>
       <r>    -8.5370     0.0000   144.0000 </r>
       <r>    -8.4076     0.0000   144.0000 </r>
       <r>    -8.2782     0.0000   144.0000 </r>
       <r>    -8.1488     0.0000   144.0000 </r>
       <r>    -8.0194     0.0000   144.0000 </r>
       <r>    -7.8900    -0.0000   144.0000 </r>
       <r>    -7.7606    -0.0000   144.0000 </r>
       <r>    -7.6312    -0.0000   144.0000 </r>
       <r>    -7.5018    -0.0000   144.0000 </r>
       <r>    -7.3724    -0.0000   144.0000 </r>
       <r>    -7.2430    -0.0000   144.0000 </r>
       <r>    -7.1136    -0.0000   144.0000 </r>
       <r>    -6.9842    -0.0000   144.0000 </r>
       <r>    -6.8548    -0.0022   143.9997 </r>
       <r>    -6.7254    -0.0800   143.9894 </r>
       <r>    -6.5960    -1.1127   143.8454 </r>
       <r>    -6.4666    -4.4073   143.2751 </r>
       <r>    -6.3372     9.0337   144.4440 </r>
       <r>    -6.2078    68.5444   153.3138 </r>
       <r>    -6.0784    89.7610   164.9290 </r>
       <r>    -5.9490    29.8523   168.7919 </r>
       <r>    -5.8196    -3.4355   168.3474 </r>
       <r>    -5.6902    -2.4004   168.0368 </r>
       <r>    -5.5608    -0.2729   168.0014 </r>
       <r>    -5.4314    -0.0110   168.0000 </r>
       <r>    -5.3020    -0.0002   168.0000 </r>
       <r>    -5.1726    -0.0000   168.0000 </r>
       <r>    -5.0432    -0.0000   168.0000 </r>
       <r>    -4.9138    -0.0000   168.0000 </r>
       <r>    -4.7844    -0.0000   168.0000 </r>
       <r>    -4.6550    -0.0004   167.9999 </r>
       <r>    -4.5255    -0.0146   167.9981 </r>
       <r>    -4.3961    -0.2027   167.9718 </r>
       <r>    -4.2667    -0.7849   167.8703 </r>
       <r>    -4.1373     1.6257   168.0806 </r>
       <r>    -4.0079    11.4761   169.5656 </r>
       <r>    -3.8785    15.0441   171.5124 </r>
       <r>    -3.7491    11.9987   173.0650 </r>
       <r>    -3.6197    22.1531   175.9317 </r>
       <r>    -3.4903    33.7263   180.2959 </r>
       <r>    -3.3609    23.6738   183.3593 </r>
       <r>    -3.2315    12.6816   185.0004 </r>
       <r>    -3.1021    28.7767   188.7241 </r>
       <r>    -2.9727    46.8781   194.7902 </r>
       <r>    -2.8433    33.4156   199.1142 </r>
       <r>    -2.7139    18.8456   201.5529 </r>
       <r>    -2.5845    45.2169   207.4040 </r>
       <r>    -2.4551    71.5855   216.6673 </r>
       <r>    -2.3257    58.1411   224.1909 </r>
       <r>    -2.1963    49.9764   230.6579 </r>
       <r>    -2.0669    54.3062   237.6852 </r>
       <r>    -1.9375    38.0254   242.6058 </r>
       <r>    -1.8081    41.5609   247.9838 </r>
       <r>    -1.6787    61.0826   255.8880 </r>
       <r>    -1.5493    57.1555   263.2840 </r>
       <r>    -1.4199    39.8510   268.4408 </r>
       <r>    -1.2905    27.2276   271.9641 </r>
       <r>    -1.1611    38.5216   276.9489 </r>
       <r>    -1.0317    55.5072   284.1316 </r>
       <r>    -0.9023    48.5158   290.4096 </r>
       <r>    -0.7729    31.4374   294.4776 </r>
       <r>    -0.6435    32.4475   298.6764 </r>
       <r>    -0.5141    59.8225   306.4175 </r>
       <r>    -0.3847    68.1437   315.2354 </r>
       <r>    -0.2553    53.4686   322.1544 </r>
       <r>    -0.1259    37.5005   327.0070 </r>
       <r>     0.0035    26.6345   330.4535 </r>
       <r>     0.1329    36.6302   335.1935 </r>
       <r>     0.2623    49.9517   341.6574 </r>
       <r>     0.3917    48.9379   347.9900 </r>
       <r>     0.5211    41.8952   353.4113 </r>
       <r>     0.6505    37.5192   358.2664 </r>
       <r>     0.7799    28.4699   361.9504 </r>
       <r>     0.9093    13.1459   363.6515 </r>
       <r>     1.0387    11.3408   365.1190 </r>
       <r>     1.1681    25.7735   368.4542 </r>
       <r>     1.2975    22.8175   371.4068 </r>
       <r>     1.4269    13.0542   373.0960 </r>
       <r>     1.5563    20.7139   375.7764 </r>
       <r>     1.6857    23.7202   378.8459 </r>
       <r>     1.8151    21.9944   381.6920 </r>
       <r>     1.9445    25.6303   385.0086 </r>
       <r>     2.0739    19.4433   387.5246 </r>
       <r>     2.2033     5.0741   388.1812 </r>
       <r>     2.3327    -0.8554   388.0705 </r>
       <r>     2.4621    -0.6997   387.9799 </r>
       <r>     2.5915    -1.3578   387.8042 </r>
       <r>     2.7209    -0.5208   387.7368 </r>
       <r>     2.8503    16.9937   389.9358 </r>
       <r>     2.9797    42.8247   395.4774 </r>
       <r>     3.1091    32.1073   399.6322 </r>
       <r>     3.2385     3.8844   400.1348 </r>
       <r>     3.3679    -0.9078   400.0173 </r>
       <r>     3.4973    17.6092   402.2960 </r>
       <r>     3.6268    30.3079   406.2179 </r>
       <r>     3.7562    17.5763   408.4923 </r>
       <r>     3.8856    13.2592   410.2080 </r>
       <r>     4.0150    13.4000   411.9420 </r>
       <r>     4.1444    16.9612   414.1368 </r>
       <r>     4.2738    42.3196   419.6131 </r>
       <r>     4.4032    66.5938   428.2304 </r>
       <r>     4.5326    60.1677   436.0162 </r>
       <r>     4.6620    44.2740   441.7453 </r>
       <r>     4.7914    56.3274   449.0342 </r>
       <r>     4.9208    55.8904   456.2665 </r>
       <r>     5.0502    35.5046   460.8608 </r>
       <r>     5.1796    20.4389   463.5057 </r>
       <r>     5.3090     5.4189   464.2069 </r>
       <r>     5.4384    -0.9450   464.0846 </r>
       <r>     5.5678    -0.5783   464.0098 </r>
       <r>     5.6972    -0.0720   464.0004 </r>
       <r>     5.8266    -0.0033   464.0000 </r>
       <r>     5.9560    -0.0001   464.0000 </r>
       <r>     6.0854    -0.0000   464.0000 </r>
       <r>     6.2148    -0.0000   464.0000 </r>
       <r>     6.3442    -0.0000   464.0000 </r>
       <r>     6.4736     0.0000   464.0000 </r>
       <r>     6.6030     0.0000   464.0000 </r>
       <r>     6.7324     0.0000   464.0000 </r>
       <r>     6.8618     0.0000   464.0000 </r>
       <r>     6.9912     0.0000   464.0000 </r>
       <r>     7.1206     0.0000   464.0000 </r>
      </set>
     </set>
    </array>
   </total>
  </dos>
 </calculation>
 <structure name="finalpos" >
  <crystal>
   <varray name="basis" >
    <v>      19.57216263       0.00000000       0.00000000 </v>
    <v>       0.00000000       7.16060400       0.00000000 </v>
    <v>       0.00000000       1.38837625      10.28371310 </v>
   </varray>
   <i name="volume">   1441.24702706 </i>
   <varray name="rec_basis" >
    <v>       0.05109297       0.00000000       0.00000000 </v>
    <v>       0.00000000       0.13965302      -0.01885418 </v>
    <v>       0.00000000       0.00000000       0.09724114 </v>
   </varray>
  </crystal>
  <varray name="positions" >
   <v>       0.40520199       0.76872197       0.88459999 </v>
   <v>       0.09479800       0.26872201       0.88459999 </v>
   <v>       0.90520199       0.73127799       0.11540000 </v>
   <v>       0.59479801       0.23127799       0.11540000 </v>
   <v>       0.82768498       0.13471601       0.57874697 </v>
   <v>       0.67227999       0.03741600       0.57922697 </v>
   <v>       0.17228000       0.46258400       0.42077301 </v>
   <v>       0.67231502       0.63471591       0.57874697 </v>
   <v>       0.33012598       0.21310298       0.17458900 </v>
   <v>       0.66987399       0.78689696       0.82541108 </v>
   <v>       0.32768500       0.36528399       0.42125301 </v>
   <v>       0.16987399       0.71310305       0.17458900 </v>
   <v>       0.17231500       0.86528399       0.42125301 </v>
   <v>       0.83012596       0.28689700       0.82541108 </v>
   <v>       0.82771996       0.53741600       0.57922697 </v>
   <v>       0.32771999       0.96258404       0.42077301 </v>
   <v>       0.76231498       0.81748499       0.67325999 </v>
   <v>       0.26231500       0.68251504       0.32674001 </v>
   <v>       0.73768502       0.31748499       0.67325999 </v>
   <v>       0.23768500       0.18251499       0.32674001 </v>
   <v>       0.75008303       0.01093099       0.95642505 </v>
   <v>       0.41396401       0.13764700       0.55523301 </v>
   <v>       0.74991697       0.51093096       0.95642505 </v>
   <v>       0.07943200       0.94937701       0.24077501 </v>
   <v>       0.59857101       0.74086996       0.05725900 </v>
   <v>       0.42013901       0.94979104       0.23899301 </v>
   <v>       0.90142904       0.24087000       0.05725900 </v>
   <v>       0.75017001       0.12530800       0.36914400 </v>
   <v>       0.25008301       0.48906903       0.04357500 </v>
   <v>       0.40142899       0.25912998       0.94274097 </v>
   <v>       0.08603600       0.63764695       0.55523301 </v>
   <v>       0.57943200       0.55062302       0.75922504 </v>
   <v>       0.24991699       0.98906899       0.04357500 </v>
   <v>       0.92056795       0.05062298       0.75922504 </v>
   <v>       0.58603604       0.86235308       0.44476701 </v>
   <v>       0.91396401       0.36235298       0.44476701 </v>
   <v>       0.09857100       0.75912994       0.94274097 </v>
   <v>       0.24982999       0.87469203       0.63085600 </v>
   <v>       0.92013897       0.55020899       0.76100701 </v>
   <v>       0.10100399       0.14254899       0.53351202 </v>
   <v>       0.57986099       0.05020900       0.76100701 </v>
   <v>       0.74982999       0.62530800       0.36914400 </v>
   <v>       0.42056800       0.44937697       0.24077501 </v>
   <v>       0.89899595       0.85745102       0.46648801 </v>
   <v>       0.60100400       0.35745098       0.46648801 </v>
   <v>       0.25016998       0.37469200       0.63085600 </v>
   <v>       0.39899600       0.64254901       0.53351202 </v>
   <v>       0.07986100       0.44979101       0.23899301 </v>
  </varray>
 </structure>
</modeling>
