Ga2BiAs                                 
           1
    19.572163    0.000000    0.000000
     0.000000    7.160604    0.000000
     0.000000    1.388376   10.283713
   Cs   Nb   S    Br
   4  12   4  28
Direct configuration=     1
   0.40520199  0.76872197  0.88459999
   0.09479800  0.26872201  0.88459999
   0.90520199  0.73127799  0.11540000
   0.59479801  0.23127799  0.11540000
   0.82768498  0.13471601  0.57874697
   0.67227999  0.03741600  0.57922697
   0.17228000  0.46258400  0.42077301
   0.67231502  0.63471591  0.57874697
   0.33012598  0.21310298  0.17458900
   0.66987399  0.78689696  0.82541108
   0.32768500  0.36528399  0.42125301
   0.16987399  0.71310305  0.17458900
   0.17231500  0.86528399  0.42125301
   0.83012596  0.28689700  0.82541108
   0.82771996  0.53741600  0.57922697
   0.32771999  0.96258404  0.42077301
   0.76231498  0.81748499  0.67325999
   0.26231500  0.68251504  0.32674001
   0.73768502  0.31748499  0.67325999
   0.23768500  0.18251499  0.32674001
   0.75008303  0.01093099  0.95642505
   0.41396401  0.13764700  0.55523301
   0.74991697  0.51093096  0.95642505
   0.07943200  0.94937701  0.24077501
   0.59857101  0.74086996  0.05725900
   0.42013901  0.94979104  0.23899301
   0.90142904  0.24087000  0.05725900
   0.75017001  0.12530800  0.36914400
   0.25008301  0.48906903  0.04357500
   0.40142899  0.25912998  0.94274097
   0.08603600  0.63764695  0.55523301
   0.57943200  0.55062302  0.75922504
   0.24991699  0.98906899  0.04357500
   0.92056795  0.05062298  0.75922504
   0.58603604  0.86235308  0.44476701
   0.91396401  0.36235298  0.44476701
   0.09857100  0.75912994  0.94274097
   0.24982999  0.87469203  0.63085600
   0.92013897  0.55020899  0.76100701
   0.10100399  0.14254899  0.53351202
   0.57986099  0.05020900  0.76100701
   0.74982999  0.62530800  0.36914400
   0.42056800  0.44937697  0.24077501
   0.89899595  0.85745102  0.46648801
   0.60100400  0.35745098  0.46648801
   0.25016998  0.37469200  0.63085600
   0.39899600  0.64254901  0.53351202
   0.07986100  0.44979101  0.23899301
