       N       E                     dE             d eps       ncg     rms          rms(c)
DAV:   1    -0.203550649389E+03   -0.20355E+03   -0.25134E+03333672   0.127E+02    0.127E+02
DAV:   2    -0.242668632511E+03   -0.39118E+02   -0.47070E+02386352   0.536E+01    0.286E+01
DAV:   3    -0.242064187752E+03    0.60444E+00   -0.23624E+01412056   0.138E+01    0.171E+01
DAV:   4    -0.242387018769E+03   -0.32283E+00   -0.50288E+00415368   0.883E+00    0.972E+00
DAV:   5    -0.241950617328E+03    0.43640E+00   -0.47470E+00422848   0.748E+00    0.392E+00
DAV:   6    -0.241762914967E+03    0.18770E+00   -0.66335E-01396048   0.335E+00    0.144E+00
DAV:   7    -0.241767190977E+03   -0.42760E-02   -0.80911E-02410024   0.102E+00    0.113E+00
DAV:   8    -0.241765615043E+03    0.15759E-02   -0.20761E-02414592   0.744E-01    0.691E-01
DAV:   9    -0.241766422860E+03   -0.80782E-03   -0.17491E-02410448   0.564E-01    0.248E-01
DAV:  10    -0.241766099902E+03    0.32296E-03   -0.46535E-03384664   0.311E-01    0.146E-01
DAV:  11    -0.241766259425E+03   -0.15952E-03   -0.72697E-04380784   0.992E-02    0.722E-02
DAV:  12    -0.241766289091E+03   -0.29666E-04   -0.12571E-04366040   0.311E-02    0.384E-02
DAV:  13    -0.241766304013E+03   -0.14922E-04   -0.15135E-05193168   0.222E-02    0.361E-02
DAV:  14    -0.241766308463E+03   -0.44504E-05   -0.94517E-06182304   0.155E-02
   1 F= -.24176631E+03 E0= -.24175274E+03  d E =-.271455E-01
