   48   48    1    1
  0.3002598E+02  0.1957216E-08  0.7160604E-09  0.1037701E-08  0.5000000E-15
  1.000000000000000E-004
  CAR 
 Ga2BiAs                                 
    388     26    232
