Automatically generated mesh
      26
Reciprocal lattice
    0.00000000000000    0.00000000000000    0.00000000000000             1
    0.33333333333333    0.00000000000000    0.00000000000000             2
    0.00000000000000    0.20000000000000    0.00000000000000             2
    0.33333333333333    0.20000000000000    0.00000000000000             4
    0.00000000000000    0.40000000000000    0.00000000000000             2
    0.33333333333333    0.40000000000000    0.00000000000000             4
    0.00000000000000    0.00000000000000    0.20000000000000             2
    0.33333333333333    0.00000000000000    0.20000000000000             4
    0.00000000000000    0.20000000000000    0.20000000000000             2
    0.33333333333333    0.20000000000000    0.20000000000000             4
    0.00000000000000    0.40000000000000    0.20000000000000             2
    0.33333333333333    0.40000000000000    0.20000000000000             4
    0.00000000000000   -0.40000000000000    0.20000000000000             2
    0.33333333333333   -0.40000000000000    0.20000000000000             4
    0.00000000000000   -0.20000000000000    0.20000000000000             2
    0.33333333333333   -0.20000000000000    0.20000000000000             4
    0.00000000000000    0.00000000000000    0.40000000000000             2
    0.33333333333333    0.00000000000000    0.40000000000000             4
    0.00000000000000    0.20000000000000    0.40000000000000             2
    0.33333333333333    0.20000000000000    0.40000000000000             4
    0.00000000000000    0.40000000000000    0.40000000000000             2
    0.33333333333333    0.40000000000000    0.40000000000000             4
    0.00000000000000   -0.40000000000000    0.40000000000000             2
    0.33333333333333   -0.40000000000000    0.40000000000000             4
    0.00000000000000   -0.20000000000000    0.40000000000000             2
    0.33333333333333   -0.20000000000000    0.40000000000000             4
