       N       E                     dE             d eps       ncg     rms          rms(c)
DAV:   1     0.423927182011E+04    0.42393E+04   -0.16378E+05 13192   0.145E+03
DAV:   2     0.412005995491E+03   -0.38273E+04   -0.36890E+04 15776   0.512E+02
DAV:   3    -0.207447736421E+03   -0.61945E+03   -0.59278E+03 18648   0.196E+02
DAV:   4    -0.253289722082E+03   -0.45842E+02   -0.45091E+02 18184   0.589E+01
DAV:   5    -0.255193451527E+03   -0.19037E+01   -0.18849E+01 19696   0.135E+01    0.637E+01
DAV:   6    -0.242844072161E+03    0.12349E+02   -0.40162E+01 20304   0.185E+01    0.260E+01
DAV:   7    -0.242211376509E+03    0.63270E+00   -0.10127E+01 17648   0.935E+00    0.118E+01
DAV:   8    -0.242316470087E+03   -0.10509E+00   -0.47584E+00 19816   0.820E+00    0.639E+00
DAV:   9    -0.241932342143E+03    0.38413E+00   -0.23460E+00 19080   0.528E+00    0.229E+00
DAV:  10    -0.241891525505E+03    0.40817E-01   -0.21610E-01 17480   0.179E+00    0.129E+00
DAV:  11    -0.241904224928E+03   -0.12699E-01   -0.82562E-02 18656   0.108E+00    0.893E-01
DAV:  12    -0.241896760660E+03    0.74643E-02   -0.30431E-02 19160   0.926E-01    0.381E-01
DAV:  13    -0.241896514417E+03    0.24624E-03   -0.73865E-03 19536   0.375E-01    0.303E-01
DAV:  14    -0.241897295351E+03   -0.78093E-03   -0.18881E-03 17448   0.175E-01    0.144E-01
DAV:  15    -0.241897244817E+03    0.50534E-04   -0.69262E-04 18744   0.143E-01    0.511E-02
DAV:  16    -0.241897277631E+03   -0.32814E-04   -0.12177E-04 15088   0.358E-02    0.233E-02
DAV:  17    -0.241897286392E+03   -0.87612E-05   -0.18294E-05  8960   0.149E-02
   1 F= -.24189729E+03 E0= -.24189286E+03  d E =-.132732E-01
