 vasp.5.4.4.18Apr17-6-g9f103f2a35 (build Dec 22 2021 20:00:30) complex          
  
 executed on             LinuxIFC date 2022.03.03  15:09:18
 running on    1 total cores
 distrk:  each k-point on    1 cores,    1 groups
 distr:  one band on NCORES_PER_BAND=   1 cores,    1 groups


--------------------------------------------------------------------------------------------------------


 INCAR:
 POTCAR:    PAW_PBE Cs_sv 08Apr2002               
 POTCAR:    PAW_PBE Nb_pv 08Apr2002               
 POTCAR:    PAW_PBE S 06Sep2000                   
 POTCAR:    PAW_PBE Br 06Sep2000                  
 POTCAR:    PAW_PBE Cs_sv 08Apr2002               
   VRHFIN =Cs: 5s5p6s                                                           
   LEXCH  = PE                                                                  
   EATOM  =   555.6835 eV,   40.8416 Ry                                         
                                                                                
   TITEL  = PAW_PBE Cs_sv 08Apr2002                                             
   LULTRA =        F    use ultrasoft PP ?                                      
   IUNSCR =        1    unscreen: 0-lin 1-nonlin 2-no                           
   RPACOR =    2.200    partial core radius                                     
   POMASS =  132.900; ZVAL   =    9.000    mass and valenz                      
   RCORE  =    2.500    outmost cutoff radius                                   
   RWIGS  =    2.500; RWIGS  =    1.323    wigner-seitz radius (au A)           
   ENMAX  =  220.318; ENMIN  =  165.238 eV                                      
   RCLOC  =    2.207    cutoff for local pot                                    
   LCOR   =        T    correct aug charges                                     
   LPAW   =        T    paw PP                                                  
   EAUG   =  407.933                                                            
   DEXC   =    0.000                                                            
   RMAX   =    2.554    core radius for proj-oper                               
   RAUG   =    1.300    factor for augmentation sphere                          
   RDEP   =    2.590    radius for radial grids                                 
   RDEPT  =    2.117    core radius for aug-charge                              
                                                                                
   Atomic configuration                                                         
   13 entries                                                                   
     n  l   j            E        occ.                                          
     1  0  0.50    -35790.1377   2.0000                                         
     2  0  0.50     -5613.6201   2.0000                                         
     2  1  1.50     -5035.0101   6.0000                                         
     3  0  0.50     -1167.0767   2.0000                                         
     3  1  1.50      -980.9754   6.0000                                         
     3  2  2.50      -708.0703  10.0000                                         
     4  0  0.50      -220.2386   2.0000                                         
     4  1  1.50      -160.7596   6.0000                                         
     4  2  2.50       -74.2354  10.0000                                         
     5  0  0.50       -26.7287   2.0000                                         
     6  0  0.50        -2.0862   1.0000                                         
     5  1  1.50       -13.5159   6.0000                                         
     5  2  2.50        -0.4136   0.0000                                         
   Description                                                                  
     l       E           TYP  RCUT    TYP  RCUT                                 
     0    -26.7287425     23  1.900                                             
     0     -2.0862306     23  1.900                                             
     1    -13.5158719     23  2.500                                             
     1     -2.7211652     23  2.500                                             
     2     -0.4136171     23  2.500                                             
  local pseudopotential read in
  partial core-charges read in
  partial kinetic energy density read in
  atomic valenz-charges read in
  non local Contribution for L=           0  read in
    real space projection operators read in
  non local Contribution for L=           0  read in
    real space projection operators read in
  non local Contribution for L=           1  read in
    real space projection operators read in
  non local Contribution for L=           1  read in
    real space projection operators read in
  non local Contribution for L=           2  read in
    real space projection operators read in
    PAW grid and wavefunctions read in
 
   number of l-projection  operators is LMAX  =           5
   number of lm-projection operators is LMMAX =          13
 
 POTCAR:    PAW_PBE Nb_pv 08Apr2002               
   VRHFIN =Nb: 4p5s4d                                                           
   LEXCH  = PE                                                                  
   EATOM  =  1043.3917 eV,   76.6871 Ry                                         
                                                                                
   TITEL  = PAW_PBE Nb_pv 08Apr2002                                             
   LULTRA =        F    use ultrasoft PP ?                                      
   IUNSCR =        1    unscreen: 0-lin 1-nonlin 2-no                           
   RPACOR =    2.200    partial core radius                                     
   POMASS =   92.000; ZVAL   =   11.000    mass and valenz                      
   RCORE  =    2.750    outmost cutoff radius                                   
   RWIGS  =    2.840; RWIGS  =    1.503    wigner-seitz radius (au A)           
   ENMAX  =  208.608; ENMIN  =  156.456 eV                                      
   RCLOC  =    2.201    cutoff for local pot                                    
   LCOR   =        T    correct aug charges                                     
   LPAW   =        T    paw PP                                                  
   EAUG   =  355.067                                                            
   DEXC   =    0.000                                                            
   RMAX   =    2.804    core radius for proj-oper                               
   RAUG   =    1.300    factor for augmentation sphere                          
   RDEP   =    2.776    radius for radial grids                                 
   RDEPT  =    2.198    core radius for aug-charge                              
                                                                                
   Atomic configuration                                                         
   11 entries                                                                   
     n  l   j            E        occ.                                          
     1  0  0.50    -18805.2456   2.0000                                         
     2  0  0.50     -2630.2869   2.0000                                         
     2  1  1.50     -2348.4045   6.0000                                         
     3  0  0.50      -438.8756   2.0000                                         
     3  1  1.50      -346.7587   6.0000                                         
     3  2  2.50      -196.2559  10.0000                                         
     4  0  0.50       -58.3859   2.0000                                         
     4  1  1.50       -34.5141   6.0000                                         
     4  2  2.50        -3.0408   4.0000                                         
     5  0  0.50        -3.9816   1.0000                                         
     4  3  2.50        -1.3606   0.0000                                         
   Description                                                                  
     l       E           TYP  RCUT    TYP  RCUT                                 
     1    -34.5140617     23  2.600                                             
     1     -1.3605826     23  2.600                                             
     2     -3.0407924     23  2.600                                             
     2     -1.4463597     23  2.600                                             
     0     -3.9816219     23  2.750                                             
     0     20.4087390     23  2.750                                             
  local pseudopotential read in
  partial core-charges read in
  partial kinetic energy density read in
  atomic valenz-charges read in
  non local Contribution for L=           1  read in
    real space projection operators read in
  non local Contribution for L=           1  read in
    real space projection operators read in
  non local Contribution for L=           2  read in
    real space projection operators read in
  non local Contribution for L=           2  read in
    real space projection operators read in
  non local Contribution for L=           0  read in
    real space projection operators read in
  non local Contribution for L=           0  read in
    real space projection operators read in
    PAW grid and wavefunctions read in
 
   number of l-projection  operators is LMAX  =           6
   number of lm-projection operators is LMMAX =          18
 
 POTCAR:    PAW_PBE S 06Sep2000                   
   VRHFIN =S : s2p4                                                             
   LEXCH  = PE                                                                  
   EATOM  =   276.8230 eV,   20.3459 Ry                                         
                                                                                
   TITEL  = PAW_PBE S 06Sep2000                                                 
   LULTRA =        F    use ultrasoft PP ?                                      
   IUNSCR =        1    unscreen: 0-lin 1-nonlin 2-no                           
   RPACOR =    1.500    partial core radius                                     
   POMASS =   32.066; ZVAL   =    6.000    mass and valenz                      
   RCORE  =    1.900    outmost cutoff radius                                   
   RWIGS  =    2.200; RWIGS  =    1.164    wigner-seitz radius (au A)           
   ENMAX  =  258.689; ENMIN  =  194.016 eV                                      
   ICORE  =        2    local potential                                         
   LCOR   =        T    correct aug charges                                     
   LPAW   =        T    paw PP                                                  
   EAUG   =  335.092                                                            
   DEXC   =    0.000                                                            
   RMAX   =    1.942    core radius for proj-oper                               
   RAUG   =    1.300    factor for augmentation sphere                          
   RDEP   =    1.954    radius for radial grids                                 
   RDEPT  =    1.744    core radius for aug-charge                              
                                                                                
   Atomic configuration                                                         
    6 entries                                                                   
     n  l   j            E        occ.                                          
     1  0  0.50     -2405.8406   2.0000                                         
     2  0  0.50      -211.7007   2.0000                                         
     2  1  1.50      -156.4958   6.0000                                         
     3  0  0.50       -17.2562   2.0000                                         
     3  1  0.50        -7.0085   4.0000                                         
     3  2  1.50        -6.8029   0.0000                                         
   Description                                                                  
     l       E           TYP  RCUT    TYP  RCUT                                 
     0    -17.2561641     23  1.900                                             
     0    -15.8743224     23  1.900                                             
     1     -7.0085400     23  1.900                                             
     1     -2.7779785     23  1.900                                             
     2     -6.8029130     23  1.900                                             
  local pseudopotential read in
  partial core-charges read in
  partial kinetic energy density read in
  atomic valenz-charges read in
  non local Contribution for L=           0  read in
    real space projection operators read in
  non local Contribution for L=           0  read in
    real space projection operators read in
  non local Contribution for L=           1  read in
    real space projection operators read in
  non local Contribution for L=           1  read in
    real space projection operators read in
    PAW grid and wavefunctions read in
 
   number of l-projection  operators is LMAX  =           4
   number of lm-projection operators is LMMAX =           8
 
 POTCAR:    PAW_PBE Br 06Sep2000                  
   VRHFIN =Br: s2p5                                                             
   LEXCH  = PE                                                                  
   EATOM  =   368.4488 eV,   27.0802 Ry                                         
                                                                                
   TITEL  = PAW_PBE Br 06Sep2000                                                
   LULTRA =        F    use ultrasoft PP ?                                      
   IUNSCR =        1    unscreen: 0-lin 1-nonlin 2-no                           
   RPACOR =    1.900    partial core radius                                     
   POMASS =   79.904; ZVAL   =    7.000    mass and valenz                      
   RCORE  =    2.100    outmost cutoff radius                                   
   RWIGS  =    2.200; RWIGS  =    1.164    wigner-seitz radius (au A)           
   ENMAX  =  216.285; ENMIN  =  162.214 eV                                      
   ICORE  =        3    local potential                                         
   LCOR   =        T    correct aug charges                                     
   LPAW   =        T    paw PP                                                  
   EAUG   =  503.852                                                            
   DEXC   =    0.000                                                            
   RMAX   =    2.139    core radius for proj-oper                               
   RAUG   =    1.300    factor for augmentation sphere                          
   RDEP   =    2.186    radius for radial grids                                 
   RDEPT  =    1.890    core radius for aug-charge                              
                                                                                
   Atomic configuration                                                         
   10 entries                                                                   
     n  l   j            E        occ.                                          
     1  0  0.50    -13316.2796   2.0000                                         
     2  0  0.50     -1732.8239   2.0000                                         
     2  1  1.50     -1528.2193   6.0000                                         
     3  0  0.50      -238.0460   2.0000                                         
     3  1  1.50      -173.4609   6.0000                                         
     3  2  2.50       -66.7132  10.0000                                         
     4  0  0.50       -20.1334   2.0000                                         
     4  1  0.50        -7.8591   5.0000                                         
     4  2  2.50        -8.1635   0.0000                                         
     4  3  2.50        -8.1635   0.0000                                         
   Description                                                                  
     l       E           TYP  RCUT    TYP  RCUT                                 
     0    -20.1333652     23  2.100                                             
     0    -21.4939478     23  2.100                                             
     1     -7.8591052     23  2.100                                             
     1     -3.1608434     23  2.100                                             
     2     -8.1634956     23  2.100                                             
     3     -1.3605826      7  2.100                                             
  local pseudopotential read in
  partial core-charges read in
  partial kinetic energy density read in
  atomic valenz-charges read in
  non local Contribution for L=           0  read in
    real space projection operators read in
  non local Contribution for L=           0  read in
    real space projection operators read in
  non local Contribution for L=           1  read in
    real space projection operators read in
  non local Contribution for L=           1  read in
    real space projection operators read in
  non local Contribution for L=           2  read in
    real space projection operators read in
    PAW grid and wavefunctions read in
 
   number of l-projection  operators is LMAX  =           5
   number of lm-projection operators is LMMAX =          13
 
 Optimization of the real space projectors (new method)

 maximal supplied QI-value         = 15.12
 optimisation between [QCUT,QGAM] = [ 11.34, 22.83] = [ 36.00,145.93] Ry 
 Optimized for a Real-space Cutoff    1.56 Angstroem

   l    n(q)    QCUT    max X(q) W(low)/X(q) W(high)/X(q)  e(spline) 
   0     11    11.338    25.322    0.46E-04    0.79E-04    0.58E-06
   0     11    11.338    99.187    0.44E-04    0.77E-04    0.56E-06
   1     10    11.338    11.761    0.13E-03    0.11E-03    0.42E-06
   1     10    11.338     8.275    0.14E-03    0.11E-03    0.46E-06
   2     10    11.338     3.829    0.13E-03    0.23E-03    0.18E-06
 Optimization of the real space projectors (new method)

 maximal supplied QI-value         = 13.61
 optimisation between [QCUT,QGAM] = [ 11.43, 22.86] = [ 36.58,146.31] Ry 
 Optimized for a Real-space Cutoff    1.56 Angstroem

   l    n(q)    QCUT    max X(q) W(low)/X(q) W(high)/X(q)  e(spline) 
   1     10    11.429     4.545    0.52E-04    0.55E-05    0.71E-07
   1     10    11.429     6.014    0.18E-03    0.77E-05    0.28E-06
   2     10    11.429   266.542    0.21E-03    0.47E-03    0.14E-05
   2     10    11.429   232.726    0.21E-03    0.47E-03    0.14E-05
   0     11    11.429    38.050    0.89E-04    0.28E-04    0.53E-06
   0     11    11.429    16.565    0.70E-04    0.24E-04    0.40E-06
 Optimization of the real space projectors (new method)

 maximal supplied QI-value         = 19.84
 optimisation between [QCUT,QGAM] = [ 11.31, 22.82] = [ 35.82,145.81] Ry 
 Optimized for a Real-space Cutoff    1.20 Angstroem

   l    n(q)    QCUT    max X(q) W(low)/X(q) W(high)/X(q)  e(spline) 
   0      8    11.310   187.594    0.16E-03    0.19E-03    0.53E-07
   0      8    11.310   164.243    0.16E-03    0.19E-03    0.53E-07
   1      8    11.310    67.533    0.18E-03    0.19E-03    0.92E-07
   1      8    11.310    50.729    0.18E-03    0.19E-03    0.90E-07
 Optimization of the real space projectors (new method)

 maximal supplied QI-value         = 17.95
 optimisation between [QCUT,QGAM] = [ 11.31, 22.80] = [ 35.82,145.56] Ry 
 Optimized for a Real-space Cutoff    1.31 Angstroem

   l    n(q)    QCUT    max X(q) W(low)/X(q) W(high)/X(q)  e(spline) 
   0      9    11.310   175.082    0.48E-04    0.59E-04    0.71E-07
   0      9    11.310   174.004    0.47E-04    0.57E-04    0.69E-07
   1      8    11.310    54.315    0.11E-03    0.13E-03    0.93E-07
   1      8    11.310    42.441    0.10E-03    0.13E-03    0.91E-07
   2      8    11.310     3.596    0.18E-04    0.69E-04    0.67E-07
  PAW_PBE Cs_sv 08Apr2002               :
 energy of atom  1       EATOM= -555.6835
 kinetic energy error for atom=    0.0019 (will be added to EATOM!!)
  PAW_PBE Nb_pv 08Apr2002               :
 energy of atom  2       EATOM=-1043.3917
 kinetic energy error for atom=    0.0013 (will be added to EATOM!!)
  PAW_PBE S 06Sep2000                   :
 energy of atom  3       EATOM= -276.8230
 kinetic energy error for atom=    0.0020 (will be added to EATOM!!)
  PAW_PBE Br 06Sep2000                  :
 energy of atom  4       EATOM= -368.4488
 kinetic energy error for atom=    0.0011 (will be added to EATOM!!)
 
 
 POSCAR: Cs4 Nb12 S4 Br28                        
  positions in direct lattice
  No initial velocities read in
 exchange correlation table for  LEXCH =        8
   RHO(1)=    0.500       N(1)  =     2000
   RHO(2)=  100.500       N(2)  =     4000
 


--------------------------------------------------------------------------------------------------------


 ion  position               nearest neighbor table
   1  0.405  0.769  0.885-
   2  0.095  0.269  0.885-
   3  0.905  0.731  0.115-
   4  0.595  0.231  0.115-
   5  0.828  0.135  0.579-  19 2.47  36 2.61  34 2.62  28 2.66  17 2.68  44 2.80  15 2.88  14 2.91
                             6 3.12
   6  0.672  0.037  0.579-  17 2.48  35 2.61  41 2.62  28 2.67  19 2.67  45 2.80   8 2.88  10 2.92
                             5 3.12
   7  0.172  0.463  0.421-  18 2.48  31 2.61  48 2.62  46 2.67  20 2.67  40 2.80  13 2.88  12 2.92
                            11 3.12
   8  0.672  0.635  0.579-  17 2.47  35 2.61  32 2.62  42 2.66  19 2.68  45 2.80   6 2.88  10 2.91
                            15 3.12
   9  0.330  0.213  0.175-  20 2.39  26 2.60  43 2.60  33 2.73  29 2.74  30 2.76  11 2.91  16 2.92

  10  0.670  0.787  0.825-  17 2.39  41 2.60  32 2.60  21 2.73  23 2.74  25 2.76   8 2.91   6 2.92

  11  0.328  0.365  0.421-  20 2.47  22 2.61  43 2.62  46 2.66  18 2.68  47 2.80  16 2.88   9 2.91
                             7 3.12
  12  0.170  0.713  0.175-  18 2.39  48 2.60  24 2.60  29 2.73  33 2.74  37 2.76  13 2.91   7 2.92

  13  0.172  0.865  0.421-  18 2.47  31 2.61  24 2.62  38 2.66  20 2.68  40 2.80   7 2.88  12 2.91
                            16 3.12
  14  0.830  0.287  0.825-  19 2.39  39 2.60  34 2.60  23 2.73  21 2.74  27 2.76   5 2.91  15 2.92

  15  0.828  0.537  0.579-  19 2.48  36 2.61  39 2.62  42 2.67  17 2.67  44 2.80   5 2.88  14 2.92
                             8 3.12
  16  0.328  0.963  0.421-  20 2.48  22 2.61  26 2.62  38 2.67  18 2.67  47 2.80  11 2.88   9 2.92
                            13 3.12
  17  0.762  0.817  0.673-  10 2.39   8 2.47   6 2.48  15 2.67   5 2.68
  18  0.262  0.683  0.327-  12 2.39  13 2.47   7 2.48  16 2.67  11 2.68
  19  0.738  0.317  0.673-  14 2.39   5 2.47  15 2.48   6 2.67   8 2.68
  20  0.238  0.183  0.327-   9 2.39  11 2.47  16 2.48   7 2.67  13 2.68
  21  0.750  0.011  0.956-  10 2.73  14 2.74
  22  0.414  0.138  0.555-  11 2.61  16 2.61
  23  0.750  0.511  0.956-  14 2.73  10 2.74
  24  0.079  0.949  0.241-  12 2.60  13 2.62
  25  0.599  0.741  0.057-  10 2.76
  26  0.420  0.950  0.239-   9 2.60  16 2.62
  27  0.901  0.241  0.057-  14 2.76
  28  0.750  0.125  0.369-   5 2.66   6 2.67
  29  0.250  0.489  0.044-  12 2.73   9 2.74
  30  0.401  0.259  0.943-   9 2.76
  31  0.086  0.638  0.555-  13 2.61   7 2.61
  32  0.579  0.551  0.759-  10 2.60   8 2.62
  33  0.250  0.989  0.044-   9 2.73  12 2.74
  34  0.921  0.051  0.759-  14 2.60   5 2.62
  35  0.586  0.862  0.445-   8 2.61   6 2.61
  36  0.914  0.362  0.445-   5 2.61  15 2.61
  37  0.099  0.759  0.943-  12 2.76
  38  0.250  0.875  0.631-  13 2.66  16 2.67
  39  0.920  0.550  0.761-  14 2.60  15 2.62
  40  0.101  0.143  0.534-   7 2.80  13 2.80
  41  0.580  0.050  0.761-  10 2.60   6 2.62
  42  0.750  0.625  0.369-   8 2.66  15 2.67
  43  0.421  0.449  0.241-   9 2.60  11 2.62
  44  0.899  0.857  0.466-  15 2.80   5 2.80
  45  0.601  0.357  0.466-   6 2.80   8 2.80
  46  0.250  0.375  0.631-  11 2.66   7 2.67
  47  0.399  0.643  0.534-  16 2.80  11 2.80
  48  0.080  0.450  0.239-  12 2.60   7 2.62
 
  LATTYP: Found a simple monoclinic cell.
 ALAT       =    13.3731005516
 B/A-ratio  =     1.4635471073
 C/A-ratio  =     1.4040276409
 COS(beta)  =    -0.9560312962
  
  Lattice vectors:
  
 A1 = (   0.0000000000,  -8.5489802464, -10.2837130993)
 A2 = ( -19.5721626282,   0.0000000000,   0.0000000000)
 A3 = (   0.0000000000,  15.7095842465,  10.2837130993)


Analysis of symmetry for initial positions (statically):
=====================================================================
 Subroutine PRICEL returns:
 Original cell was already a primitive cell.
 

 Routine SETGRP: Setting up the symmetry group for a 
 simple monoclinic supercell.


 Subroutine GETGRP returns: Found  4 space group operations
 (whereof  2 operations were pure point group operations)
 out of a pool of  4 trial point group operations.


The static configuration has the point symmetry S_2 .
 The point group associated with its full space group is C_2h.


Analysis of symmetry for dynamics (positions and initial velocities):
=====================================================================
 Subroutine PRICEL returns:
 Original cell was already a primitive cell.
 

 Routine SETGRP: Setting up the symmetry group for a 
 simple monoclinic supercell.


 Subroutine GETGRP returns: Found  4 space group operations
 (whereof  2 operations were pure point group operations)
 out of a pool of  4 trial point group operations.


The dynamic configuration has the point symmetry S_2 .
 The point group associated with its full space group is C_2h.


 Subroutine INISYM returns: Found  4 space group operations
 (whereof  2 operations are pure point group operations),
 and found     1 'primitive' translations

 
 
 KPOINTS: MP                                      

Automatic generation of k-mesh.
Space group operators:
 irot       det(A)        alpha          n_x          n_y          n_z        tau_x        tau_y        tau_z
    1     1.000000     0.000000     1.000000     0.000000     0.000000     0.000000     0.000000     0.000000
    2    -1.000000     0.000000     1.000000     0.000000     0.000000     0.000000     0.000000     0.000000
    3     1.000000   180.000000     1.000000     0.000000     0.000000    -0.500000     0.500000    -0.000000
    4    -1.000000   180.000000     1.000000     0.000000     0.000000    -0.500000     0.500000     0.000000
 
 Subroutine IBZKPT returns following result:
 ===========================================
 
 Found     26 irreducible k-points:
 
 Following reciprocal coordinates:
            Coordinates               Weight
  0.000000  0.000000  0.000000      1.000000
  0.333333  0.000000  0.000000      2.000000
  0.000000  0.200000  0.000000      2.000000
  0.333333  0.200000  0.000000      4.000000
  0.000000  0.400000  0.000000      2.000000
  0.333333  0.400000  0.000000      4.000000
  0.000000  0.000000  0.200000      2.000000
  0.333333  0.000000  0.200000      4.000000
  0.000000  0.200000  0.200000      2.000000
  0.333333  0.200000  0.200000      4.000000
  0.000000  0.400000  0.200000      2.000000
  0.333333  0.400000  0.200000      4.000000
  0.000000 -0.400000  0.200000      2.000000
  0.333333 -0.400000  0.200000      4.000000
  0.000000 -0.200000  0.200000      2.000000
  0.333333 -0.200000  0.200000      4.000000
  0.000000  0.000000  0.400000      2.000000
  0.333333  0.000000  0.400000      4.000000
  0.000000  0.200000  0.400000      2.000000
  0.333333  0.200000  0.400000      4.000000
  0.000000  0.400000  0.400000      2.000000
  0.333333  0.400000  0.400000      4.000000
  0.000000 -0.400000  0.400000      2.000000
  0.333333 -0.400000  0.400000      4.000000
  0.000000 -0.200000  0.400000      2.000000
  0.333333 -0.200000  0.400000      4.000000
 
 Following cartesian coordinates:
            Coordinates               Weight
  0.000000  0.000000  0.000000      1.000000
  0.017031  0.000000  0.000000      2.000000
  0.000000  0.027931 -0.003771      2.000000
  0.017031  0.027931 -0.003771      4.000000
  0.000000  0.055861 -0.007542      2.000000
  0.017031  0.055861 -0.007542      4.000000
  0.000000  0.000000  0.019448      2.000000
  0.017031  0.000000  0.019448      4.000000
  0.000000  0.027931  0.015677      2.000000
  0.017031  0.027931  0.015677      4.000000
  0.000000  0.055861  0.011907      2.000000
  0.017031  0.055861  0.011907      4.000000
  0.000000 -0.055861  0.026990      2.000000
  0.017031 -0.055861  0.026990      4.000000
  0.000000 -0.027931  0.023219      2.000000
  0.017031 -0.027931  0.023219      4.000000
  0.000000  0.000000  0.038896      2.000000
  0.017031  0.000000  0.038896      4.000000
  0.000000  0.027931  0.035126      2.000000
  0.017031  0.027931  0.035126      4.000000
  0.000000  0.055861  0.031355      2.000000
  0.017031  0.055861  0.031355      4.000000
  0.000000 -0.055861  0.046438      2.000000
  0.017031 -0.055861  0.046438      4.000000
  0.000000 -0.027931  0.042667      2.000000
  0.017031 -0.027931  0.042667      4.000000
 


--------------------------------------------------------------------------------------------------------




 Dimension of arrays:
   k-points           NKPTS =     26   k-points in BZ     NKDIM =     26   number of bands    NBANDS=    232
   number of dos      NEDOS =    301   number of ions     NIONS =     48
   non local maximal  LDIM  =      6   non local SUM 2l+1 LMDIM =     18
   total plane-waves  NPLWV = 622080
   max r-space proj   IRMAX =   6969   max aug-charges    IRDMAX=  26771
   dimension x,y,z NGX =   144 NGY =   54 NGZ =   80
   dimension x,y,z NGXF=   288 NGYF=  108 NGZF=  160
   support grid    NGXF=   288 NGYF=  108 NGZF=  160
   ions per type =               4  12   4  28
   NGX,Y,Z   is equivalent  to a cutoff of  12.23, 12.54, 12.82 a.u.
   NGXF,Y,Z  is equivalent  to a cutoff of  24.46, 25.07, 25.63 a.u.

 SYSTEM =  Ga2BiAs                                 
 POSCAR =  Cs4 Nb12 S4 Br28                        

 Startparameter for this run:
   NWRITE =      2    write-flag & timer
   PREC   = accura    normal or accurate (medium, high low for compatibility)
   ISTART =      1    job   : 0-new  1-cont  2-samecut
   ICHARG =      2    charge: 1-file 2-atom 10-const
   ISPIN  =      1    spin polarized calculation?
   LNONCOLLINEAR =      F non collinear calculations
   LSORBIT =      F    spin-orbit coupling
   INIWAV =      1    electr: 0-lowe 1-rand  2-diag
   LASPH  =      F    aspherical Exc in radial PAW
   METAGGA=      F    non-selfconsistent MetaGGA calc.

 Electronic Relaxation 1
   ENCUT  =  500.0 eV  36.75 Ry    6.06 a.u.  35.68 13.06 18.92*2*pi/ulx,y,z
   ENINI  =  500.0     initial cutoff
   ENAUG  =  503.9 eV  augmentation charge cutoff
   NELM   =     60;   NELMIN=  2; NELMDL=  0     # of ELM steps 
   EDIFF  = 0.1E-04   stopping-criterion for ELM
   LREAL  =      T    real-space projection
   NLSPLINE    = F    spline interpolate recip. space projectors
   LCOMPAT=      F    compatible to vasp.4.4
   GGA_COMPAT  = T    GGA compatible to vasp.4.4-vasp.4.6
   LMAXPAW     = -100 max onsite density
   LMAXMIX     =    2 max onsite mixed and CHGCAR
   VOSKOWN=      0    Vosko Wilk Nusair interpolation
   ROPT   =   -0.00025  -0.00025  -0.00025  -0.00025
 Ionic relaxation
   EDIFFG = -.1E-01   stopping-criterion for IOM
   NSW    =      0    number of steps for IOM
   NBLOCK =      1;   KBLOCK =      1    inner block; outer block 
   IBRION =     -1    ionic relax: 0-MD 1-quasi-New 2-CG
   NFREE  =      0    steps in history (QN), initial steepest desc. (CG)
   ISIF   =      2    stress and relaxation
   IWAVPR =     10    prediction:  0-non 1-charg 2-wave 3-comb
   ISYM   =      2    0-nonsym 1-usesym 2-fastsym
   LCORR  =      T    Harris-Foulkes like correction to forces

   POTIM  = 0.5000    time-step for ionic-motion
   TEIN   =    0.0    initial temperature
   TEBEG  =    0.0;   TEEND  =   0.0 temperature during run
   SMASS  =  -3.00    Nose mass-parameter (am)
   estimated Nose-frequenzy (Omega)   =  0.10E-29 period in steps =****** mass=  -0.875E-26a.u.
   SCALEE = 1.0000    scale energy and forces
   NPACO  =    256;   APACO  = 16.0  distance and # of slots for P.C.
   PSTRESS=    0.0 pullay stress

  Mass of Ions in am
   POMASS = 132.90 92.00 32.07 79.90
  Ionic Valenz
   ZVAL   =   9.00 11.00  6.00  7.00
  Atomic Wigner-Seitz radii
   RWIGS  =  -1.00 -1.00 -1.00 -1.00
  virtual crystal weights 
   VCA    =   1.00  1.00  1.00  1.00
   NELECT =     388.0000    total number of electrons
   NUPDOWN=      -1.0000    fix difference up-down

 DOS related values:
   EMIN   =  10.00;   EMAX   =-10.00  energy-range for DOS
   EFERMI =   0.00
   ISMEAR =     1;   SIGMA  =   0.20  broadening in eV -4-tet -1-fermi 0-gaus

 Electronic relaxation 2 (details)
   IALGO  =     38    algorithm
   LDIAG  =      T    sub-space diagonalisation (order eigenvalues)
   LSUBROT=      F    optimize rotation matrix (better conditioning)
   TURBO    =      0    0=normal 1=particle mesh
   IRESTART =      0    0=no restart 2=restart with 2 vectors
   NREBOOT  =      0    no. of reboots
   NMIN     =      0    reboot dimension
   EREF     =   0.00    reference energy to select bands
   IMIX   =      4    mixing-type and parameters
     AMIX     =   0.40;   BMIX     =  1.00
     AMIX_MAG =   1.60;   BMIX_MAG =  1.00
     AMIN     =   0.10
     WC   =   100.;   INIMIX=   1;  MIXPRE=   1;  MAXMIX= -45

 Intra band minimization:
   WEIMIN = 0.0000     energy-eigenvalue tresh-hold
   EBREAK =  0.11E-07  absolut break condition
   DEPER  =   0.30     relativ break condition  

   TIME   =   0.40     timestep for ELM

  volume/ion in A,a.u.               =      30.03       202.63
  Fermi-wavevector in a.u.,A,eV,Ry     =   1.057075  1.997583 15.203262  1.117408
  Thomas-Fermi vector in A             =   2.192335
 
 Write flags
   LWAVE        =      T    write WAVECAR
   LDOWNSAMPLE  =      F    k-point downsampling of WAVECAR
   LCHARG       =      T    write CHGCAR
   LVTOT        =      F    write LOCPOT, total local potential
   LVHAR        =      F    write LOCPOT, Hartree potential only
   LELF         =      F    write electronic localiz. function (ELF)
   LORBIT       =      0    0 simple, 1 ext, 2 COOP (PROOUT), +10 PAW based schemes


 Dipole corrections
   LMONO  =      F    monopole corrections only (constant potential shift)
   LDIPOL =      F    correct potential (dipole corrections)
   IDIPOL =      0    1-x, 2-y, 3-z, 4-all directions 
   EPSILON=  1.0000000 bulk dielectric constant

 Exchange correlation treatment:
   GGA     =    --    GGA type
   LEXCH   =     8    internal setting for exchange type
   VOSKOWN=      0    Vosko Wilk Nusair interpolation
   LHFCALC =     F    Hartree Fock is set to
   LHFONE  =     F    Hartree Fock one center treatment
   AEXX    =    0.0000 exact exchange contribution

 Linear response parameters
   LEPSILON=     F    determine dielectric tensor
   LRPA    =     F    only Hartree local field effects (RPA)
   LNABLA  =     F    use nabla operator in PAW spheres
   LVEL    =     F    velocity operator in full k-point grid
   LINTERFAST=   F  fast interpolation
   KINTER  =     0    interpolate to denser k-point grid
   CSHIFT  =0.1000    complex shift for real part using Kramers Kronig
   OMEGAMAX=  -1.0    maximum frequency
   DEG_THRESHOLD= 0.2000000E-02 threshold for treating states as degnerate
   RTIME   =   -0.100 relaxation time in fs
  (WPLASMAI=    0.000 imaginary part of plasma frequency in eV, 0.658/RTIME)
   DFIELD  = 0.0000000 0.0000000 0.0000000 field for delta impulse in time
 
 Orbital magnetization related:
   ORBITALMAG=     F  switch on orbital magnetization
   LCHIMAG   =     F  perturbation theory with respect to B field
   DQ        =  0.001000  dq finite difference perturbation B field
   LLRAUG    =     F  two centre corrections for induced B field



--------------------------------------------------------------------------------------------------------


 Static calculation
 charge density and potential will be updated during run
 non-spin polarized calculation
 Variant of blocked Davidson
 Davidson routine will perform the subspace rotation
 perform sub-space diagonalisation
    after iterative eigenvector-optimisation
 modified Broyden-mixing scheme, WC =      100.0
 initial mixing is a Kerker type mixing with AMIX =  0.4000 and BMIX =      1.0000
 Hartree-type preconditioning will be used
 using additional bands           38
 real space projection scheme for non local part
 use partial core corrections
 calculate Harris-corrections to forces 
   (improved forces if not selfconsistent)
 use gradient corrections 
 use of overlap-Matrix (Vanderbilt PP)
 Methfessel and Paxton  Order N= 1 SIGMA  =   0.20


--------------------------------------------------------------------------------------------------------


  energy-cutoff  :      500.00
  volume of cell :     1441.25
      direct lattice vectors                 reciprocal lattice vectors
    19.572162628  0.000000000  0.000000000     0.051092974  0.000000000  0.000000000
     0.000000000  7.160604000  0.000000000     0.000000000  0.139653024 -0.018854176
     0.000000000  1.388376246 10.283713099     0.000000000  0.000000000  0.097241141

  length of vectors
    19.572162628  7.160604000 10.377010345     0.051092974  0.140920002  0.097241141


 
 old parameters found on file WAVECAR:
  energy-cutoff  :      500.00
  volume of cell :     1441.25
      direct lattice vectors                 reciprocal lattice vectors
    19.572162628  0.000000000  0.000000000     0.051092974  0.000000000  0.000000000
     0.000000000  7.160604000  0.000000000     0.000000000  0.139653024 -0.018854176
     0.000000000  1.388376246 10.283713099     0.000000000  0.000000000  0.097241141

  length of vectors

 
 k-points in units of 2pi/SCALE and weight: MP                                      
   0.00000000  0.00000000  0.00000000       0.013
   0.01703099  0.00000000  0.00000000       0.027
   0.00000000  0.02793060 -0.00377084       0.027
   0.01703099  0.02793060 -0.00377084       0.053
   0.00000000  0.05586121 -0.00754167       0.027
   0.01703099  0.05586121 -0.00754167       0.053
   0.00000000  0.00000000  0.01944823       0.027
   0.01703099  0.00000000  0.01944823       0.053
   0.00000000  0.02793060  0.01567739       0.027
   0.01703099  0.02793060  0.01567739       0.053
   0.00000000  0.05586121  0.01190656       0.027
   0.01703099  0.05586121  0.01190656       0.053
   0.00000000 -0.05586121  0.02698990       0.027
   0.01703099 -0.05586121  0.02698990       0.053
   0.00000000 -0.02793060  0.02321906       0.027
   0.01703099 -0.02793060  0.02321906       0.053
   0.00000000  0.00000000  0.03889646       0.027
   0.01703099  0.00000000  0.03889646       0.053
   0.00000000  0.02793060  0.03512562       0.027
   0.01703099  0.02793060  0.03512562       0.053
   0.00000000  0.05586121  0.03135479       0.027
   0.01703099  0.05586121  0.03135479       0.053
   0.00000000 -0.05586121  0.04643813       0.027
   0.01703099 -0.05586121  0.04643813       0.053
   0.00000000 -0.02793060  0.04266729       0.027
   0.01703099 -0.02793060  0.04266729       0.053
 
 k-points in reciprocal lattice and weights: MP                                      
   0.00000000  0.00000000  0.00000000       0.013
   0.33333333  0.00000000  0.00000000       0.027
   0.00000000  0.20000000  0.00000000       0.027
   0.33333333  0.20000000  0.00000000       0.053
   0.00000000  0.40000000  0.00000000       0.027
   0.33333333  0.40000000  0.00000000       0.053
   0.00000000  0.00000000  0.20000000       0.027
   0.33333333  0.00000000  0.20000000       0.053
   0.00000000  0.20000000  0.20000000       0.027
   0.33333333  0.20000000  0.20000000       0.053
   0.00000000  0.40000000  0.20000000       0.027
   0.33333333  0.40000000  0.20000000       0.053
   0.00000000 -0.40000000  0.20000000       0.027
   0.33333333 -0.40000000  0.20000000       0.053
   0.00000000 -0.20000000  0.20000000       0.027
   0.33333333 -0.20000000  0.20000000       0.053
   0.00000000  0.00000000  0.40000000       0.027
   0.33333333  0.00000000  0.40000000       0.053
   0.00000000  0.20000000  0.40000000       0.027
   0.33333333  0.20000000  0.40000000       0.053
   0.00000000  0.40000000  0.40000000       0.027
   0.33333333  0.40000000  0.40000000       0.053
   0.00000000 -0.40000000  0.40000000       0.027
   0.33333333 -0.40000000  0.40000000       0.053
   0.00000000 -0.20000000  0.40000000       0.027
   0.33333333 -0.20000000  0.40000000       0.053
 
 position of ions in fractional coordinates (direct lattice) 
   0.40520199  0.76872197  0.88459999
   0.09479800  0.26872201  0.88459999
   0.90520199  0.73127799  0.11540000
   0.59479801  0.23127799  0.11540000
   0.82768498  0.13471601  0.57874697
   0.67227999  0.03741600  0.57922697
   0.17228000  0.46258400  0.42077301
   0.67231502  0.63471591  0.57874697
   0.33012598  0.21310298  0.17458900
   0.66987399  0.78689696  0.82541108
   0.32768500  0.36528399  0.42125301
   0.16987399  0.71310305  0.17458900
   0.17231500  0.86528399  0.42125301
   0.83012596  0.28689700  0.82541108
   0.82771996  0.53741600  0.57922697
   0.32771999  0.96258404  0.42077301
   0.76231498  0.81748499  0.67325999
   0.26231500  0.68251504  0.32674001
   0.73768502  0.31748499  0.67325999
   0.23768500  0.18251499  0.32674001
   0.75008303  0.01093099  0.95642505
   0.41396401  0.13764700  0.55523301
   0.74991697  0.51093096  0.95642505
   0.07943200  0.94937701  0.24077501
   0.59857101  0.74086996  0.05725900
   0.42013901  0.94979104  0.23899301
   0.90142904  0.24087000  0.05725900
   0.75017001  0.12530800  0.36914400
   0.25008301  0.48906903  0.04357500
   0.40142899  0.25912998  0.94274097
   0.08603600  0.63764695  0.55523301
   0.57943200  0.55062302  0.75922504
   0.24991699  0.98906899  0.04357500
   0.92056795  0.05062298  0.75922504
   0.58603604  0.86235308  0.44476701
   0.91396401  0.36235298  0.44476701
   0.09857100  0.75912994  0.94274097
   0.24982999  0.87469203  0.63085600
   0.92013897  0.55020899  0.76100701
   0.10100399  0.14254899  0.53351202
   0.57986099  0.05020900  0.76100701
   0.74982999  0.62530800  0.36914400
   0.42056800  0.44937697  0.24077501
   0.89899595  0.85745102  0.46648801
   0.60100400  0.35745098  0.46648801
   0.25016998  0.37469200  0.63085600
   0.39899600  0.64254901  0.53351202
   0.07986100  0.44979101  0.23899301
 
 position of ions in cartesian coordinates  (Angst):
   7.93067932  6.73267126  9.09697246
   1.85540187  3.15236950  9.09697246
  17.71676064  5.39661074  1.18674052
  11.64148330  1.81630874  1.18674052
  16.19958496  1.76816654  5.95166779
  13.15797330  1.07210612  5.95660400
   3.37189222  3.89657211  4.32710886
  13.15865899  5.34846783  5.95166779
   6.46127939  1.76834130  1.79542315
  13.11088275  6.78063869  8.48829079
   6.41350413  3.20051169  4.33204508
   3.32480144  5.34864378  1.79542315
   3.37257718  6.78081369  4.33204508
  16.24736023  3.20033694  8.48829079
  16.20026971  4.65240812  5.95660400
   6.41418886  7.47687435  4.32710886
  14.92015266  6.78842449  6.92361260
   5.13407182  5.34085799  3.36010051
  14.43809128  3.20812249  6.92361260
   4.65200949  1.76055563  3.36010051
  14.68074703  1.40615034  9.83560086
   8.10217095  1.75650799  5.70985699
  14.67749691  4.98645210  9.83560086
   1.55465602  7.13239908  2.47606110
  11.71532917  5.38457346  0.58883518
   8.22302913  7.13288974  2.45773554
  17.64291573  1.80427170  0.58883518
  14.68244934  1.40979171  3.79617095
   4.89466524  3.56252814  0.44811282
   7.85683346  3.16440630  9.69487762
   1.68391049  5.33680964  5.70985699
  11.34073734  4.99688339  7.80765247
   4.89141607  7.14282989  0.44811282
  18.01750565  1.41658115  7.80765247
  11.46999264  6.79247284  4.57385636
  17.88825226  3.21217013  4.57385636
   1.92924774  6.74470806  9.69487762
   4.88971329  7.13918877  6.48754215
  18.00910950  4.99639273  7.82597780
   1.97686660  1.76145232  5.48648453
  11.34913350  1.41609084  7.82597780
  14.67579461  4.99009371  3.79617095
   8.23142529  3.55209685  2.47606110
  17.59529496  6.78752804  4.79722882
  11.76294803  3.20722580  4.79722882
   4.89636755  3.55888652  6.48754215
   7.80921460  5.34175444  5.48648453
   1.56305254  3.55258751  2.45773554
 


--------------------------------------------------------------------------------------------------------


 k-point  1 :   0.0000 0.0000 0.0000  plane waves:   36535
 k-point  2 :   0.3333 0.0000 0.0000  plane waves:   36554
 k-point  3 :   0.0000 0.2000 0.0000  plane waves:   36552
 k-point  4 :   0.3333 0.2000 0.0000  plane waves:   36583
 k-point  5 :   0.0000 0.4000 0.0000  plane waves:   36610
 k-point  6 :   0.3333 0.4000 0.0000  plane waves:   36566
 k-point  7 :   0.0000 0.0000 0.2000  plane waves:   36551
 k-point  8 :   0.3333 0.0000 0.2000  plane waves:   36557
 k-point  9 :   0.0000 0.2000 0.2000  plane waves:   36583
 k-point 10 :   0.3333 0.2000 0.2000  plane waves:   36584
 k-point 11 :   0.0000 0.4000 0.2000  plane waves:   36625
 k-point 12 :   0.3333 0.4000 0.2000  plane waves:   36598
 k-point 13 :   0.0000-0.4000 0.2000  plane waves:   36585
 k-point 14 :   0.3333-0.4000 0.2000  plane waves:   36609
 k-point 15 :   0.0000-0.2000 0.2000  plane waves:   36602
 k-point 16 :   0.3333-0.2000 0.2000  plane waves:   36570
 k-point 17 :   0.0000 0.0000 0.4000  plane waves:   36529
 k-point 18 :   0.3333 0.0000 0.4000  plane waves:   36578
 k-point 19 :   0.0000 0.2000 0.4000  plane waves:   36613
 k-point 20 :   0.3333 0.2000 0.4000  plane waves:   36587
 k-point 21 :   0.0000 0.4000 0.4000  plane waves:   36631
 k-point 22 :   0.3333 0.4000 0.4000  plane waves:   36631
 k-point 23 :   0.0000-0.4000 0.4000  plane waves:   36634
 k-point 24 :   0.3333-0.4000 0.4000  plane waves:   36641
 k-point 25 :   0.0000-0.2000 0.4000  plane waves:   36613
 k-point 26 :   0.3333-0.2000 0.4000  plane waves:   36579

 maximum and minimum number of plane-waves per node :     36641    36529

 maximum number of plane-waves:     36641
 maximum index in each direction: 
   IXMAX=   35   IYMAX=   13   IZMAX=   18
   IXMIN=  -36   IYMIN=  -13   IZMIN=  -19


 serial   3D FFT for wavefunctions
 parallel 3D FFT for charge:
    minimum data exchange during FFTs selected (reduces bandwidth)


 total amount of memory used by VASP MPI-rank0  4224368. kBytes
=======================================================================

   base      :      30000. kBytes
   nonlr-proj:      34993. kBytes
   fftplans  :     171440. kBytes
   grid      :     386809. kBytes
   one-center:        746. kBytes
   wavefun   :    3600380. kBytes
 
     INWAV:  cpu time    5.5215: real time    5.7594
 Broyden mixing: mesh for mixing (old mesh)
   NGX = 71   NGY = 27   NGZ = 37
  (NGX  =288   NGY  =108   NGZ  =160)
  gives a total of  70929 points

 initial charge density was supplied:
 charge density of overlapping atoms calculated
 number of electron     388.0000000 magnetization 
 keeping initial charge density in first step


--------------------------------------------------------------------------------------------------------


 Maximum index for non-local projection operator         6723
 Maximum index for augmentation-charges        25789 (set IRDMAX)
