<?xml version="1.0" encoding="ISO-8859-1"?>
<modeling>
 <generator>
  <i name="program" type="string">vasp </i>
  <i name="version" type="string">5.4.4.18Apr17-6-g9f103f2a35  </i>
  <i name="subversion" type="string">(build Dec 22 2021 20:00:30) complex            parallel </i>
  <i name="platform" type="string">LinuxIFC </i>
  <i name="date" type="string">2022 03 03 </i>
  <i name="time" type="string">15:09:18 </i>
 </generator>
 <incar>
  <i type="string" name="SYSTEM"> Ga2BiAs</i>
  <i type="string" name="PREC">accurate</i>
  <i type="int" name="ICHARG">     2</i>
  <i name="EDIFF">      0.00001000</i>
  <i name="EDIFFG">     -0.01000000</i>
  <i name="ENCUT">    500.00000000</i>
  <i type="string" name="LREAL"> Auto</i>
  <i type="logical" name="LWAVE"> T  </i>
  <i type="logical" name="LCHARG"> T  </i>
  <v type="int" name="KPOINT_BSE">    -1     0     0     0</v>
 </incar>
 <structure name="primitive_cell" >
  <crystal>
   <varray name="basis" >
    <v>      19.57216263       0.00000000       0.00000000 </v>
    <v>       0.00000000       7.16060400       0.00000000 </v>
    <v>       0.00000000       1.38837625      10.28371310 </v>
   </varray>
   <i name="volume">   1441.24702706 </i>
   <varray name="rec_basis" >
    <v>       0.05109297       0.00000000       0.00000000 </v>
    <v>       0.00000000       0.13965302      -0.01885418 </v>
    <v>       0.00000000       0.00000000       0.09724114 </v>
   </varray>
  </crystal>
  <varray name="positions" >
   <v>       0.40520199      -0.23127803      -0.11540001 </v>
   <v>       0.40142899       0.25912997      -0.05725903 </v>
   <v>       0.39899600      -0.35745099      -0.46648798 </v>
   <v>       0.25008300       0.48906903       0.04357500 </v>
   <v>       0.24991700      -0.01093101       0.04357500 </v>
   <v>       0.24983000      -0.12530797      -0.36914400 </v>
   <v>       0.41396401       0.13764700      -0.44476699 </v>
   <v>      -0.42056800      -0.44937698      -0.24077496 </v>
   <v>       0.42013902      -0.05020896       0.23899301 </v>
   <v>      -0.42013902       0.05020900      -0.23899299 </v>
   <v>       0.42056800       0.44937697       0.24077501 </v>
   <v>      -0.40142899      -0.25913004       0.05725900 </v>
   <v>       0.33012598       0.21310298       0.17458900 </v>
   <v>       0.32771999      -0.03741596       0.42077301 </v>
   <v>       0.25016998       0.37469200      -0.36914400 </v>
   <v>      -0.33012601      -0.21310304      -0.17458891 </v>
   <v>       0.26231500      -0.31748496       0.32674001 </v>
   <v>       0.16987399      -0.28689695       0.17458900 </v>
   <v>      -0.40520199       0.23127799       0.11540000 </v>
   <v>      -0.41396396      -0.13764692       0.44476701 </v>
   <v>       0.09857100      -0.24087006      -0.05725903 </v>
   <v>       0.32768500       0.36528399       0.42125301 </v>
   <v>      -0.32768498      -0.36528409      -0.42125303 </v>
   <v>      -0.32772001       0.03741600      -0.42077303 </v>
   <v>       0.17231500      -0.13471601       0.42125301 </v>
   <v>       0.23768500       0.18251499       0.32674001 </v>
   <v>      -0.39899600       0.35745098       0.46648801 </v>
   <v>      -0.25008303      -0.48906904      -0.04357495 </v>
   <v>      -0.24991697       0.01093099      -0.04357495 </v>
   <v>       0.09479800       0.26872201      -0.11540001 </v>
   <v>       0.17228000       0.46258400       0.42077301 </v>
   <v>       0.08603599      -0.36235305      -0.44476699 </v>
   <v>       0.10100399       0.14254899      -0.46648798 </v>
   <v>      -0.23768503      -0.18251501      -0.32674001 </v>
   <v>       0.07986100       0.44979101       0.23899301 </v>
   <v>       0.07943200      -0.05062300       0.24077501 </v>
   <v>      -0.26231497       0.31748499      -0.32674001 </v>
   <v>      -0.25017000      -0.37469200       0.36914400 </v>
   <v>      -0.24983000       0.12530800       0.36914400 </v>
   <v>      -0.16987404       0.28689700      -0.17458891 </v>
   <v>      -0.17228004      -0.46258400      -0.42077303 </v>
   <v>      -0.17231502       0.13471601      -0.42125303 </v>
   <v>      -0.07986103      -0.44979101      -0.23899299 </v>
   <v>      -0.07943205       0.05062298      -0.24077496 </v>
   <v>      -0.09479801      -0.26872201       0.11540000 </v>
   <v>      -0.09857096       0.24087000       0.05725900 </v>
   <v>      -0.10100405      -0.14254898       0.46648801 </v>
   <v>      -0.08603599       0.36235298       0.44476701 </v>
  </varray>
 </structure>
 <varray name="primitive_index" >
  <v type="int" >        1 </v>
  <v type="int" >       30 </v>
  <v type="int" >       47 </v>
  <v type="int" >       29 </v>
  <v type="int" >       33 </v>
  <v type="int" >       38 </v>
  <v type="int" >       22 </v>
  <v type="int" >       32 </v>
  <v type="int" >       26 </v>
  <v type="int" >       41 </v>
  <v type="int" >       43 </v>
  <v type="int" >       25 </v>
  <v type="int" >        9 </v>
  <v type="int" >       16 </v>
  <v type="int" >       46 </v>
  <v type="int" >       10 </v>
  <v type="int" >       18 </v>
  <v type="int" >       12 </v>
  <v type="int" >        4 </v>
  <v type="int" >       35 </v>
  <v type="int" >       37 </v>
  <v type="int" >       11 </v>
  <v type="int" >        8 </v>
  <v type="int" >        6 </v>
  <v type="int" >       13 </v>
  <v type="int" >       20 </v>
  <v type="int" >       45 </v>
  <v type="int" >       23 </v>
  <v type="int" >       21 </v>
  <v type="int" >        2 </v>
  <v type="int" >        7 </v>
  <v type="int" >       31 </v>
  <v type="int" >       40 </v>
  <v type="int" >       17 </v>
  <v type="int" >       48 </v>
  <v type="int" >       24 </v>
  <v type="int" >       19 </v>
  <v type="int" >       42 </v>
  <v type="int" >       28 </v>
  <v type="int" >       14 </v>
  <v type="int" >       15 </v>
  <v type="int" >        5 </v>
  <v type="int" >       39 </v>
  <v type="int" >       34 </v>
  <v type="int" >        3 </v>
  <v type="int" >       27 </v>
  <v type="int" >       44 </v>
  <v type="int" >       36 </v>
 </varray>
 <kpoints>
  <generation param="Gamma">
   <v type="int" name="divisions">       3        5        5 </v>
   <v name="usershift">      0.00000000       0.00000000       0.00000000 </v>
   <v name="genvec1">      0.33333333       0.00000000       0.00000000 </v>
   <v name="genvec2">      0.00000000       0.20000000       0.00000000 </v>
   <v name="genvec3">      0.00000000       0.00000000       0.20000000 </v>
   <v name="shift">      0.00000000       0.00000000       0.00000000 </v>
  </generation>
  <varray name="kpointlist" >
   <v>       0.00000000       0.00000000       0.00000000 </v>
   <v>       0.33333333       0.00000000       0.00000000 </v>
   <v>       0.00000000       0.20000000       0.00000000 </v>
   <v>       0.33333333       0.20000000       0.00000000 </v>
   <v>       0.00000000       0.40000000       0.00000000 </v>
   <v>       0.33333333       0.40000000       0.00000000 </v>
   <v>       0.00000000       0.00000000       0.20000000 </v>
   <v>       0.33333333       0.00000000       0.20000000 </v>
   <v>       0.00000000       0.20000000       0.20000000 </v>
   <v>       0.33333333       0.20000000       0.20000000 </v>
   <v>       0.00000000       0.40000000       0.20000000 </v>
   <v>       0.33333333       0.40000000       0.20000000 </v>
   <v>       0.00000000      -0.40000000       0.20000000 </v>
   <v>       0.33333333      -0.40000000       0.20000000 </v>
   <v>       0.00000000      -0.20000000       0.20000000 </v>
   <v>       0.33333333      -0.20000000       0.20000000 </v>
   <v>       0.00000000       0.00000000       0.40000000 </v>
   <v>       0.33333333       0.00000000       0.40000000 </v>
   <v>       0.00000000       0.20000000       0.40000000 </v>
   <v>       0.33333333       0.20000000       0.40000000 </v>
   <v>       0.00000000       0.40000000       0.40000000 </v>
   <v>       0.33333333       0.40000000       0.40000000 </v>
   <v>       0.00000000      -0.40000000       0.40000000 </v>
   <v>       0.33333333      -0.40000000       0.40000000 </v>
   <v>       0.00000000      -0.20000000       0.40000000 </v>
   <v>       0.33333333      -0.20000000       0.40000000 </v>
  </varray>
  <varray name="weights" >
   <v>       0.01333333 </v>
   <v>       0.02666667 </v>
   <v>       0.02666667 </v>
   <v>       0.05333333 </v>
   <v>       0.02666667 </v>
   <v>       0.05333333 </v>
   <v>       0.02666667 </v>
   <v>       0.05333333 </v>
   <v>       0.02666667 </v>
   <v>       0.05333333 </v>
   <v>       0.02666667 </v>
   <v>       0.05333333 </v>
   <v>       0.02666667 </v>
   <v>       0.05333333 </v>
   <v>       0.02666667 </v>
   <v>       0.05333333 </v>
   <v>       0.02666667 </v>
   <v>       0.05333333 </v>
   <v>       0.02666667 </v>
   <v>       0.05333333 </v>
   <v>       0.02666667 </v>
   <v>       0.05333333 </v>
   <v>       0.02666667 </v>
   <v>       0.05333333 </v>
   <v>       0.02666667 </v>
   <v>       0.05333333 </v>
  </varray>
 </kpoints>
 <parameters>
  <separator name="general" >
   <i type="string" name="SYSTEM">Ga2BiAs</i>
   <i type="logical" name="LCOMPAT"> F  </i>
  </separator>
  <separator name="electronic" >
   <i type="string" name="PREC">accura</i>
   <i name="ENMAX">    500.00000000</i>
   <i name="ENAUG">    503.85200000</i>
   <i name="EDIFF">      0.00001000</i>
   <i type="int" name="IALGO">    38</i>
   <i type="int" name="IWAVPR">    10</i>
   <i type="int" name="NBANDS">   232</i>
   <i name="NELECT">    388.00000000</i>
   <i type="int" name="TURBO">     0</i>
   <i type="int" name="IRESTART">     0</i>
   <i type="int" name="NREBOOT">     0</i>
   <i type="int" name="NMIN">     0</i>
   <i name="EREF">      0.00000000</i>
   <separator name="electronic smearing" >
    <i type="int" name="ISMEAR">     1</i>
    <i name="SIGMA">      0.20000000</i>
    <i name="KSPACING">      0.50000000</i>
    <i type="logical" name="KGAMMA"> T  </i>
   </separator>
   <separator name="electronic projectors" >
    <i type="logical" name="LREAL"> T  </i>
    <v name="ROPT">     -0.00025000     -0.00025000     -0.00025000     -0.00025000</v>
    <i type="int" name="LMAXPAW">  -100</i>
    <i type="int" name="LMAXMIX">     2</i>
    <i type="logical" name="NLSPLINE"> F  </i>
   </separator>
   <separator name="electronic startup" >
    <i type="int" name="ISTART">     1</i>
    <i type="int" name="ICHARG">     2</i>
    <i type="int" name="INIWAV">     1</i>
   </separator>
   <separator name="electronic spin" >
    <i type="int" name="ISPIN">     1</i>
    <i type="logical" name="LNONCOLLINEAR"> F  </i>
    <v name="MAGMOM">      1.00000000      1.00000000      1.00000000      1.00000000      1.00000000      1.00000000      1.00000000      1.00000000      1.00000000      1.00000000      1.00000000      1.00000000      1.00000000      1.00000000      1.00000000      1.00000000      1.00000000      1.00000000      1.00000000      1.00000000
      1.00000000      1.00000000      1.00000000      1.00000000      1.00000000      1.00000000      1.00000000      1.00000000      1.00000000      1.00000000      1.00000000      1.00000000      1.00000000      1.00000000      1.00000000      1.00000000      1.00000000      1.00000000      1.00000000      1.00000000
      1.00000000      1.00000000      1.00000000      1.00000000      1.00000000      1.00000000      1.00000000      1.00000000</v>
    <i name="NUPDOWN">     -1.00000000</i>
    <i type="logical" name="LSORBIT"> F  </i>
    <v name="SAXIS">      0.00000000      0.00000000      1.00000000</v>
    <i type="logical" name="LSPIRAL"> F  </i>
    <v name="QSPIRAL">      0.00000000      0.00000000      0.00000000</v>
    <i type="logical" name="LZEROZ"> F  </i>
   </separator>
   <separator name="electronic exchange-correlation" >
    <i type="logical" name="LASPH"> F  </i>
    <i type="logical" name="LMETAGGA"> F  </i>
   </separator>
   <separator name="electronic convergence" >
    <i type="int" name="NELM">    60</i>
    <i type="int" name="NELMDL">     0</i>
    <i type="int" name="NELMIN">     2</i>
    <i name="ENINI">    500.00000000</i>
    <separator name="electronic convergence detail" >
     <i type="logical" name="LDIAG"> T  </i>
     <i type="logical" name="LSUBROT"> F  </i>
     <i name="WEIMIN">      0.00000000</i>
     <i name="EBREAK">      0.00000001</i>
     <i name="DEPER">      0.30000000</i>
     <i type="int" name="NRMM">     4</i>
     <i name="TIME">      0.40000000</i>
    </separator>
   </separator>
   <separator name="electronic mixer" >
    <i name="AMIX">      0.40000000</i>
    <i name="BMIX">      1.00000000</i>
    <i name="AMIN">      0.10000000</i>
    <i name="AMIX_MAG">      1.60000000</i>
    <i name="BMIX_MAG">      1.00000000</i>
    <separator name="electronic mixer details" >
     <i type="int" name="IMIX">     4</i>
     <i type="logical" name="MIXFIRST"> F  </i>
     <i type="int" name="MAXMIX">   -45</i>
     <i name="WC">    100.00000000</i>
     <i type="int" name="INIMIX">     1</i>
     <i type="int" name="MIXPRE">     1</i>
     <i type="int" name="MREMOVE">     5</i>
    </separator>
   </separator>
   <separator name="electronic dipolcorrection" >
    <i type="logical" name="LDIPOL"> F  </i>
    <i type="logical" name="LMONO"> F  </i>
    <i type="int" name="IDIPOL">     0</i>
    <i name="EPSILON">      1.00000000</i>
    <v name="DIPOL">   -100.00000000   -100.00000000   -100.00000000</v>
    <i name="EFIELD">      0.00000000</i>
   </separator>
  </separator>
  <separator name="grids" >
   <i type="int" name="NGX">   144</i>
   <i type="int" name="NGY">    54</i>
   <i type="int" name="NGZ">    80</i>
   <i type="int" name="NGXF">   288</i>
   <i type="int" name="NGYF">   108</i>
   <i type="int" name="NGZF">   160</i>
   <i type="logical" name="ADDGRID"> F  </i>
  </separator>
  <separator name="ionic" >
   <i type="int" name="NSW">     0</i>
   <i type="int" name="IBRION">    -1</i>
   <i type="int" name="MDALGO">     0</i>
   <i type="int" name="ISIF">     2</i>
   <i name="PSTRESS">      0.00000000</i>
   <i name="EDIFFG">     -0.01000000</i>
   <i type="int" name="NFREE">     0</i>
   <i name="POTIM">      0.50000000</i>
   <i name="SMASS">     -3.00000000</i>
   <i name="SCALEE">      1.00000000</i>
  </separator>
  <separator name="ionic md" >
   <i name="TEBEG">      0.00010000</i>
   <i name="TEEND">      0.00010000</i>
   <i type="int" name="NBLOCK">     1</i>
   <i type="int" name="KBLOCK">     1</i>
   <i type="int" name="NPACO">   256</i>
   <i name="APACO">     16.00000000</i>
  </separator>
  <separator name="symmetry" >
   <i type="int" name="ISYM">     2</i>
   <i name="SYMPREC">      0.00001000</i>
  </separator>
  <separator name="dos" >
   <i type="int" name="LORBIT">     0</i>
   <v name="RWIGS">     -1.00000000     -1.00000000     -1.00000000     -1.00000000</v>
   <i type="int" name="NEDOS">   301</i>
   <i name="EMIN">     10.00000000</i>
   <i name="EMAX">    -10.00000000</i>
   <i name="EFERMI">      0.00000000</i>
  </separator>
  <separator name="writing" >
   <i type="int" name="NWRITE">     2</i>
   <i type="logical" name="LWAVE"> T  </i>
   <i type="logical" name="LDOWNSAMPLE"> F  </i>
   <i type="logical" name="LCHARG"> T  </i>
   <i type="logical" name="LPARD"> F  </i>
   <i type="logical" name="LVTOT"> F  </i>
   <i type="logical" name="LVHAR"> F  </i>
   <i type="logical" name="LELF"> F  </i>
   <i type="logical" name="LOPTICS"> F  </i>
   <v name="STM">      0.00000000      0.00000000      0.00000000      0.00000000      0.00000000      0.00000000      0.00000000</v>
  </separator>
  <separator name="performance" >
   <i type="int" name="NPAR">     1</i>
   <i type="int" name="NSIM">     4</i>
   <i type="int" name="NBLK">    -1</i>
   <i type="logical" name="LPLANE"> T  </i>
   <i type="logical" name="LSCALAPACK"> T  </i>
   <i type="logical" name="LSCAAWARE"> F  </i>
   <i type="logical" name="LSCALU"> F  </i>
   <i type="logical" name="LASYNC"> F  </i>
   <i type="logical" name="LORBITALREAL"> F  </i>
  </separator>
  <separator name="miscellaneous" >
   <i type="int" name="IDIOT">     3</i>
   <i type="int" name="ISPECIAL">     0</i>
   <i type="logical" name="LMUSIC"> F  </i>
   <v name="POMASS">    132.90000000     92.00000000     32.06600000     79.90400000</v>
   <v name="DARWINR">      0.00000000      0.00000000      0.00000000      0.00000000</v>
   <v name="DARWINV">      1.00000000      1.00000000      1.00000000      1.00000000</v>
   <i type="logical" name="LCORR"> T  </i>
  </separator>
  <i type="logical" name="GGA_COMPAT"> T  </i>
  <i type="logical" name="LBERRY"> F  </i>
  <i type="int" name="ICORELEVEL">     0</i>
  <i type="logical" name="LDAU"> F  </i>
  <i type="int" name="I_CONSTRAINED_M">     0</i>
  <separator name="electronic exchange-correlation" >
   <i type="string" name="GGA">--</i>
   <i type="int" name="VOSKOWN">     0</i>
   <i type="logical" name="LHFCALC"> F  </i>
   <i type="string" name="PRECFOCK"></i>
   <i type="logical" name="LSYMGRAD"> F  </i>
   <i type="logical" name="LHFONE"> F  </i>
   <i type="logical" name="LRHFCALC"> F  </i>
   <i type="logical" name="LTHOMAS"> F  </i>
   <i type="logical" name="LMODELHF"> F  </i>
   <i name="ENCUT4O">     -1.00000000</i>
   <i type="int" name="EXXOEP">     0</i>
   <i type="int" name="FOURORBIT">     0</i>
   <i name="AEXX">      0.00000000</i>
   <i name="HFALPHA">      0.00000000</i>
   <i name="MCALPHA">      0.00000000</i>
   <i name="ALDAX">      1.00000000</i>
   <i name="AGGAX">      1.00000000</i>
   <i name="ALDAC">      1.00000000</i>
   <i name="AGGAC">      1.00000000</i>
   <i type="int" name="NKREDX">     1</i>
   <i type="int" name="NKREDY">     1</i>
   <i type="int" name="NKREDZ">     1</i>
   <i type="logical" name="SHIFTRED"> F  </i>
   <i type="logical" name="ODDONLY"> F  </i>
   <i type="logical" name="EVENONLY"> F  </i>
   <i type="int" name="LMAXFOCK">     0</i>
   <i type="int" name="NMAXFOCKAE">     0</i>
   <i type="logical" name="LFOCKAEDFT"> F  </i>
   <i name="HFSCREEN">      0.00000000</i>
   <i name="HFSCREENC">      0.00000000</i>
   <i type="int" name="NBANDSGWLOW">     0</i>
  </separator>
  <separator name="vdW DFT" >
   <i type="logical" name="LUSE_VDW"> F  </i>
   <i name="Zab_VDW">     -0.84910000</i>
   <i name="PARAM1">      0.12340000</i>
   <i name="PARAM2">      1.00000000</i>
   <i name="PARAM3">      0.00000000</i>
  </separator>
  <separator name="model GW" >
   <i type="int" name="MODEL_GW">     0</i>
   <i name="MODEL_EPS0">     18.01558784</i>
   <i name="MODEL_ALPHA">      1.00000000</i>
  </separator>
  <separator name="linear response parameters" >
   <i type="logical" name="LEPSILON"> F  </i>
   <i type="logical" name="LRPA"> F  </i>
   <i type="logical" name="LNABLA"> F  </i>
   <i type="logical" name="LVEL"> F  </i>
   <i type="int" name="KINTER">     0</i>
   <i name="CSHIFT">      0.10000000</i>
   <i name="OMEGAMAX">     -1.00000000</i>
   <i name="DEG_THRESHOLD">      0.00200000</i>
   <i name="RTIME">     -0.10000000</i>
   <i name="WPLASMAI">      0.00000000</i>
   <v name="DFIELD">      0.00000000      0.00000000      0.00000000</v>
   <v name="WPLASMA">      0.00000000      0.00000000      0.00000000      0.00000000      0.00000000      0.00000000      0.00000000      0.00000000      0.00000000</v>
  </separator>
  <separator name="orbital magnetization" >
   <i type="logical" name="NUCIND"> F  </i>
   <v name="MAGPOS">      0.00000000      0.00000000      0.00000000</v>
   <i type="logical" name="LNICSALL"> T  </i>
   <i type="logical" name="ORBITALMAG"> F  </i>
   <i type="logical" name="LMAGBLOCH"> F  </i>
   <i type="logical" name="LCHIMAG"> F  </i>
   <i type="logical" name="LGAUGE"> T  </i>
   <i type="int" name="MAGATOM">     0</i>
   <v name="MAGDIPOL">      0.00000000      0.00000000      0.00000000</v>
   <v name="AVECCONST">      0.00000000      0.00000000      0.00000000</v>
  </separator>
  <separator name="response functions" >
   <i type="logical" name="LADDER"> F  </i>
   <i type="logical" name="LRPAFORCE"> F  </i>
   <i type="logical" name="LFXC"> F  </i>
   <i type="logical" name="LHARTREE"> T  </i>
   <i type="int" name="IBSE">     0</i>
   <v type="int" name="KPOINT">    -1     0     0     0</v>
   <i type="logical" name="LTCTE"> F  </i>
   <i type="logical" name="LTETE"> F  </i>
   <i type="logical" name="LTRIPLET"> F  </i>
   <i type="logical" name="LFXCEPS"> F  </i>
   <i type="logical" name="LFXHEG"> F  </i>
   <i type="int" name="NATURALO">     2</i>
   <i type="logical" name="L2ORDER"> F  </i>
   <i type="logical" name="LMP2LT"> F  </i>
   <i type="logical" name="LUSEW"> F  </i>
   <i name="ENCUTGW">     -2.00000000</i>
   <i name="ENCUTGWSOFT">     -2.00000000</i>
   <i name="ENCUTLF">     -1.00000000</i>
   <i type="int" name="LMAXMP2">    -1</i>
   <i name="SCISSOR">      0.00000000</i>
   <i type="int" name="NOMEGA">     0</i>
   <i type="int" name="NOMEGAR">     0</i>
   <i type="int" name="NBANDSGW">    -1</i>
   <i type="int" name="NBANDSO">    -1</i>
   <i type="int" name="NBANDSV">    -1</i>
   <i type="int" name="NELM">     1</i>
   <i type="int" name="NELMHF">     1</i>
   <i type="int" name="DIM">     3</i>
   <i type="int" name="ANTIRES">     0</i>
   <i name="OMEGAMAX">    -30.00000000</i>
   <i name="OMEGAMIN">    -30.00000000</i>
   <i name="OMEGATL">   -200.00000000</i>
   <i type="int" name="OMEGAGRID">   140</i>
   <i name="CSHIFT">     -0.10000000</i>
   <i type="logical" name="SELFENERGY"> F  </i>
   <i type="logical" name="LSPECTRAL"> F  </i>
   <i type="logical" name="LSPECTRALGW"> F  </i>
   <i type="logical" name="LSINGLES"> F  </i>
   <i type="logical" name="LFERMIGW"> F  </i>
   <i type="logical" name="ODDONLYGW"> F  </i>
   <i type="logical" name="EVENONLYGW"> F  </i>
   <i type="int" name="NKREDLFX">     1</i>
   <i type="int" name="NKREDLFY">     1</i>
   <i type="int" name="NKREDLFZ">     1</i>
   <i type="int" name="MAXMEM">  2800</i>
   <i type="int" name="TELESCOPE">     0</i>
   <i type="int" name="TAUPAR">     1</i>
   <i type="int" name="OMEGAPAR">    -1</i>
   <i name="LAMBDA">      1.00000000</i>
  </separator>
  <separator name="External order field" >
   <i name="OFIELD_KAPPA">      0.00000000</i>
   <v name="OFIELD_K">      0.00000000      0.00000000      0.00000000</v>
   <i name="OFIELD_Q6_NEAR">      0.00000000</i>
   <i name="OFIELD_Q6_FAR">      0.00000000</i>
   <i name="OFIELD_A">      0.00000000</i>
  </separator>
 </parameters>
 <atominfo>
  <atoms>      48 </atoms>
  <types>       4 </types>
  <array name="atoms" >
   <dimension dim="1">ion</dimension>
   <field type="string">element</field>
   <field type="int">atomtype</field>
   <set>
    <rc><c>Cs</c><c>   1</c></rc>
    <rc><c>Cs</c><c>   1</c></rc>
    <rc><c>Cs</c><c>   1</c></rc>
    <rc><c>Cs</c><c>   1</c></rc>
    <rc><c>Nb</c><c>   2</c></rc>
    <rc><c>Nb</c><c>   2</c></rc>
    <rc><c>Nb</c><c>   2</c></rc>
    <rc><c>Nb</c><c>   2</c></rc>
    <rc><c>Nb</c><c>   2</c></rc>
    <rc><c>Nb</c><c>   2</c></rc>
    <rc><c>Nb</c><c>   2</c></rc>
    <rc><c>Nb</c><c>   2</c></rc>
    <rc><c>Nb</c><c>   2</c></rc>
    <rc><c>Nb</c><c>   2</c></rc>
    <rc><c>Nb</c><c>   2</c></rc>
    <rc><c>Nb</c><c>   2</c></rc>
    <rc><c>S </c><c>   3</c></rc>
    <rc><c>S </c><c>   3</c></rc>
    <rc><c>S </c><c>   3</c></rc>
    <rc><c>S </c><c>   3</c></rc>
    <rc><c>Br</c><c>   4</c></rc>
    <rc><c>Br</c><c>   4</c></rc>
    <rc><c>Br</c><c>   4</c></rc>
    <rc><c>Br</c><c>   4</c></rc>
    <rc><c>Br</c><c>   4</c></rc>
    <rc><c>Br</c><c>   4</c></rc>
    <rc><c>Br</c><c>   4</c></rc>
    <rc><c>Br</c><c>   4</c></rc>
    <rc><c>Br</c><c>   4</c></rc>
    <rc><c>Br</c><c>   4</c></rc>
    <rc><c>Br</c><c>   4</c></rc>
    <rc><c>Br</c><c>   4</c></rc>
    <rc><c>Br</c><c>   4</c></rc>
    <rc><c>Br</c><c>   4</c></rc>
    <rc><c>Br</c><c>   4</c></rc>
    <rc><c>Br</c><c>   4</c></rc>
    <rc><c>Br</c><c>   4</c></rc>
    <rc><c>Br</c><c>   4</c></rc>
    <rc><c>Br</c><c>   4</c></rc>
    <rc><c>Br</c><c>   4</c></rc>
    <rc><c>Br</c><c>   4</c></rc>
    <rc><c>Br</c><c>   4</c></rc>
    <rc><c>Br</c><c>   4</c></rc>
    <rc><c>Br</c><c>   4</c></rc>
    <rc><c>Br</c><c>   4</c></rc>
    <rc><c>Br</c><c>   4</c></rc>
    <rc><c>Br</c><c>   4</c></rc>
    <rc><c>Br</c><c>   4</c></rc>
   </set>
  </array>
  <array name="atomtypes" >
   <dimension dim="1">type</dimension>
   <field type="int">atomspertype</field>
   <field type="string">element</field>
   <field>mass</field>
   <field>valence</field>
   <field type="string">pseudopotential</field>
   <set>
    <rc><c>   4</c><c>Cs</c><c>    132.90000000</c><c>      9.00000000</c><c>  PAW_PBE Cs_sv 08Apr2002               </c></rc>
    <rc><c>  12</c><c>Nb</c><c>     92.00000000</c><c>     11.00000000</c><c>  PAW_PBE Nb_pv 08Apr2002               </c></rc>
    <rc><c>   4</c><c>S </c><c>     32.06600000</c><c>      6.00000000</c><c>  PAW_PBE S 06Sep2000                   </c></rc>
    <rc><c>  28</c><c>Br</c><c>     79.90400000</c><c>      7.00000000</c><c>  PAW_PBE Br 06Sep2000                  </c></rc>
   </set>
  </array>
 </atominfo>
 <structure name="initialpos" >
  <crystal>
   <varray name="basis" >
    <v>      19.57216263       0.00000000       0.00000000 </v>
    <v>       0.00000000       7.16060400       0.00000000 </v>
    <v>       0.00000000       1.38837625      10.28371310 </v>
   </varray>
   <i name="volume">   1441.24702706 </i>
   <varray name="rec_basis" >
    <v>       0.05109297       0.00000000       0.00000000 </v>
    <v>       0.00000000       0.13965302      -0.01885418 </v>
    <v>       0.00000000       0.00000000       0.09724114 </v>
   </varray>
  </crystal>
  <varray name="positions" >
   <v>       0.40520199       0.76872197       0.88459999 </v>
   <v>       0.09479800       0.26872201       0.88459999 </v>
   <v>       0.90520199       0.73127799       0.11540000 </v>
   <v>       0.59479801       0.23127799       0.11540000 </v>
   <v>       0.82768498       0.13471601       0.57874697 </v>
   <v>       0.67227999       0.03741600       0.57922697 </v>
   <v>       0.17228000       0.46258400       0.42077301 </v>
   <v>       0.67231502       0.63471591       0.57874697 </v>
   <v>       0.33012598       0.21310298       0.17458900 </v>
   <v>       0.66987399       0.78689696       0.82541108 </v>
   <v>       0.32768500       0.36528399       0.42125301 </v>
   <v>       0.16987399       0.71310305       0.17458900 </v>
   <v>       0.17231500       0.86528399       0.42125301 </v>
   <v>       0.83012596       0.28689700       0.82541108 </v>
   <v>       0.82771996       0.53741600       0.57922697 </v>
   <v>       0.32771999       0.96258404       0.42077301 </v>
   <v>       0.76231498       0.81748499       0.67325999 </v>
   <v>       0.26231500       0.68251504       0.32674001 </v>
   <v>       0.73768502       0.31748499       0.67325999 </v>
   <v>       0.23768500       0.18251499       0.32674001 </v>
   <v>       0.75008303       0.01093099       0.95642505 </v>
   <v>       0.41396401       0.13764700       0.55523301 </v>
   <v>       0.74991697       0.51093096       0.95642505 </v>
   <v>       0.07943200       0.94937701       0.24077501 </v>
   <v>       0.59857101       0.74086996       0.05725900 </v>
   <v>       0.42013901       0.94979104       0.23899301 </v>
   <v>       0.90142904       0.24087000       0.05725900 </v>
   <v>       0.75017001       0.12530800       0.36914400 </v>
   <v>       0.25008301       0.48906903       0.04357500 </v>
   <v>       0.40142899       0.25912998       0.94274097 </v>
   <v>       0.08603600       0.63764695       0.55523301 </v>
   <v>       0.57943200       0.55062302       0.75922504 </v>
   <v>       0.24991699       0.98906899       0.04357500 </v>
   <v>       0.92056795       0.05062298       0.75922504 </v>
   <v>       0.58603604       0.86235308       0.44476701 </v>
   <v>       0.91396401       0.36235298       0.44476701 </v>
   <v>       0.09857100       0.75912994       0.94274097 </v>
   <v>       0.24982999       0.87469203       0.63085600 </v>
   <v>       0.92013897       0.55020899       0.76100701 </v>
   <v>       0.10100399       0.14254899       0.53351202 </v>
   <v>       0.57986099       0.05020900       0.76100701 </v>
   <v>       0.74982999       0.62530800       0.36914400 </v>
   <v>       0.42056800       0.44937697       0.24077501 </v>
   <v>       0.89899595       0.85745102       0.46648801 </v>
   <v>       0.60100400       0.35745098       0.46648801 </v>
   <v>       0.25016998       0.37469200       0.63085600 </v>
   <v>       0.39899600       0.64254901       0.53351202 </v>
   <v>       0.07986100       0.44979101       0.23899301 </v>
  </varray>
 </structure>
